 *******************************************************************************
 ** Site#: 14498           For non-commercial use only        Version 12.239L **
 *******************************************************************************
 ** Cite this work as: MOPAC2012, James J. P. Stewart, Stewart Computational  **
 ** Chemistry, Version 12.239L web: HTTP://OpenMOPAC.net  Days remaining: 314 **
 *******************************************************************************
 **                                                                           **
 **                                MOPAC2012                                  **
 **                                                                           **
 *******************************************************************************

                            PM6 CALCULATION RESULTS


 *******************************************************************************
 *  CALCULATION DONE:                                Wed Oct 17 01:56:36 2012  *
 *  PM6      - The PM6 Hamiltonian to be used
 *  ESP      - ELECTROSTATIC POTENTIAL CALCULATION
 *  POLAR    - CALCULATE FIRST, SECOND AND THIRD-ORDER POLARIZABILITIES
 *
 *
 *
 *                 CHARGE ON SYSTEM =     0
 *
 *
 *
 *  EPS=999.000
 *  EF       - USE EF ROUTINE FOR MINIMUM SEARCH
 *  T=       - A TIME OF 172800.0 SECONDS REQUESTED
 *  DUMP=N   - RESTART FILE WRITTEN EVERY  7200.000 SECONDS
 *  GNORM=   - EXIT WHEN GRADIENT NORM DROPS BELOW .100    
 *  SHIFT    - A DAMPING FACTOR OF   80.00 DEFINED
 *  MULLIK   - THE MULLIKEN ANALYSIS TO BE PERFORMED
 *******************************************************************************
PM6 COSMO  CHARGE=0 EF ESP GNORM=0.100 MULLIK POLAR SHIFT=80


  ATOM    CHEMICAL      BOND LENGTH      BOND ANGLE     TWIST ANGLE 
 NUMBER    SYMBOL       (ANGSTROMS)      (DEGREES)       (DEGREES) 
   (I)                     NA:I           NB:NA:I       NC:NB:NA:I       NA    NB    NC 
     1       C          0.00000000       0.0000000       0.0000000   
     2       C          1.39973300  *    0.0000000       0.0000000        1     0     0
     3       C          1.39638000  *  120.8789120  *    0.0000000        2     1     0
     4       C          1.39596300  *  120.0238430  *   -0.0002690  *     3     2     1
     5       C          1.39577600  *  119.6511740  *    0.0000800  *     4     3     2
     6       C          1.39957300  *  118.5404630  *    0.0008650  *     1     2     3
     7       H          1.10004100  *  120.7279480  * -179.4135850  *     1     2     3
     8       H          1.10275900  *  119.8508800  * -179.4321600  *     2     1     6
     9       H          1.10307300  *  120.0236010  * -179.4273030  *     3     2     1
    10       H          1.10304700  *  120.1660820  * -179.4239830  *     4     3     2
    11       H          1.10317200  *  119.9607050  * -179.4279310  *     5     4     3
    12       H          1.10266000  *  119.8596410  * -179.4342530  *     6     1     2
 


          CARTESIAN COORDINATES 

    NO.       ATOM         X         Y         Z

     1         C        0.0000    0.0000    0.0000
     2         C        1.3997    0.0000    0.0000
     3         C        2.1164    1.1984    0.0000
     4         C        1.4375    2.4182    0.0000
     5         C        0.0418    2.4317    0.0000
     6         C       -0.6687    1.2295    0.0000
     7         H       -0.5621   -0.9455    0.0097
     8         H        1.9486   -0.9564   -0.0095
     9         H        3.2193    1.1820   -0.0095
    10         H        2.0013    3.3663   -0.0096
    11         H       -0.4998    3.3927   -0.0096
    12         H       -1.7710    1.2549    0.0094

 General Reference for PM6:
 "Optimization of Parameters for Semiempirical Methods V: Modification of NDDO Approximations
 and Application to 70 Elements", J. J. P. Stewart, J. Mol. Mod., 13, 1173-1213 (2007)
 URL: http://www.springerlink.com/content/ar33482301010477/fulltext.pdf

           Empirical Formula: C6 H6  =    12 atoms



      MOLECULAR POINT GROUP   :   D2h 


      RHF CALCULATION, NO. OF DOUBLY OCCUPIED LEVELS =   15

      Geometry optimization using EF

          DIAGONAL MATRIX USED AS START HESSIAN

 CYCLE:     1 TIME:   0.006 TIME LEFT:  2.00D  GRAD.:    22.852 HEAT: 24.67398
 CYCLE:     2 TIME:   0.008 TIME LEFT:  2.00D  GRAD.:    68.503 HEAT: 24.54452
 CYCLE:     3 TIME:   0.002 TIME LEFT:  2.00D  GRAD.:    58.098 HEAT: 24.33442
 CYCLE:     4 TIME:   0.002 TIME LEFT:  2.00D  GRAD.:    30.584 HEAT: 24.27590
 CYCLE:     5 TIME:   0.002 TIME LEFT:  2.00D  GRAD.:     5.925 HEAT: 24.21467
 CYCLE:     6 TIME:   0.004 TIME LEFT:  2.00D  GRAD.:     4.389 HEAT: 24.20876
 CYCLE:     7 TIME:   0.001 TIME LEFT:  2.00D  GRAD.:     3.855 HEAT: 24.20068
 CYCLE:     8 TIME:   0.002 TIME LEFT:  2.00D  GRAD.:     1.452 HEAT: 24.19462
 CYCLE:     9 TIME:   0.002 TIME LEFT:  2.00D  GRAD.:     0.929 HEAT: 24.19240
 CYCLE:    10 TIME:   0.002 TIME LEFT:  2.00D  GRAD.:     2.303 HEAT: 24.19425
 CYCLE:    11 TIME:   0.002 TIME LEFT:  2.00D  GRAD.:     0.229 HEAT: 24.19175
 CYCLE:    12 TIME:   0.002 TIME LEFT:  2.00D  GRAD.:     0.132 HEAT: 24.19167
 CYCLE:    13 TIME:   0.002 TIME LEFT:  2.00D  GRAD.:     0.068 HEAT: 24.19163

     RMS GRADIENT =  0.06795  IS LESS THAN CUTOFF =  0.10000



 -------------------------------------------------------------------------------
PM6 COSMO  CHARGE=0 EF ESP GNORM=0.100 MULLIK POLAR SHIFT=80




     GEOMETRY OPTIMISED USING EIGENVECTOR FOLLOWING (EF).     
     SCF FIELD WAS ACHIEVED                                   


                              PM6 CALCULATION
                                                       MOPAC2012 (Version: 12.239L)
                                                       Wed Oct 17 01:56:36 2012
                                                       No. of days left = 314




          FINAL HEAT OF FORMATION =         24.19163 KCAL/MOL =     101.21779 KJ/MOL


          TOTAL ENERGY            =       -815.66132 EV
          ELECTRONIC ENERGY       =      -3282.83713 EV  POINT GROUP:     D6h 
          CORE-CORE REPULSION     =       2467.17581 EV
          COSMO AREA              =        120.13 SQUARE ANGSTROMS
          COSMO VOLUME            =        108.61 CUBIC ANGSTROMS

          GRADIENT NORM           =          0.06795
          IONIZATION POTENTIAL    =          9.638013 EV
          HOMO LUMO ENERGIES (EV) =         -9.638  0.382
          NO. OF FILLED LEVELS    =         15
          MOLECULAR WEIGHT        =         78.113

          MOLECULAR DIMENSIONS (Angstroms)

            Atom       Atom       Distance
            H    12    H     9     4.97380
            H    11    H     8     4.30748
            H     7    H    11     0.00126


          SCF CALCULATIONS        =         16
          COMPUTATION TIME        =          0.050 SECONDS




  ATOM    CHEMICAL      BOND LENGTH      BOND ANGLE     TWIST ANGLE 
 NUMBER    SYMBOL       (ANGSTROMS)      (DEGREES)       (DEGREES) 
   (I)                     NA:I           NB:NA:I       NC:NB:NA:I       NA    NB    NC 
     1       C          0.00000000       0.0000000       0.0000000   
     2       C          1.39861657  *    0.0000000       0.0000000        1     0     0
     3       C          1.39871560  *  119.9952049  *    0.0000000        2     1     0
     4       C          1.39862802  *  119.9936628  *   -0.0381028  *     3     2     1
     5       C          1.39867560  *  120.0071228  *    0.0062236  *     4     3     2
     6       C          1.39863721  *  120.0105285  *    0.0437416  *     1     2     3
     7       H          1.08818012  *  119.9892929  * -179.9708191  *     1     2     3
     8       H          1.08819488  *  119.9968641  * -179.9718575  *     2     1     6
     9       H          1.08818170  *  120.0008224  *  179.9608868  *     3     2     1
    10       H          1.08822851  *  119.9962623  * -179.9870512  *     4     3     2
    11       H          1.08819180  *  120.0002026  * -179.9809971  *     5     4     3
    12       H          1.08819954  *  119.9989103  *  179.9689642  *     6     1     2

           Empirical Formula: C6 H6  =    12 atoms



      MOLECULAR POINT GROUP   :   D6h 


                  EIGENVALUES  
 -29.73104 -25.87062 -25.87024 -21.19621 -21.19565 -17.78004 -15.73069 -15.06760
 -14.19722 -14.19644 -13.16091 -11.93766 -11.93701  -9.63812  -9.63801   0.38155
   0.38172   2.71432   4.48346   4.48371   5.03252   5.31962   5.31996   5.56448
   5.60658   6.08025   6.08036   6.27850   6.27864   6.46959


              NET ATOMIC CHARGES AND DIPOLE CONTRIBUTIONS

  ATOM NO.   TYPE          CHARGE      No. of ELECS.   s-Pop       p-Pop       
    1          C          -0.143648        4.1436     1.10597     3.03768
    2          C          -0.143640        4.1436     1.10599     3.03765
    3          C          -0.143614        4.1436     1.10599     3.03762
    4          C          -0.143645        4.1436     1.10598     3.03766
    5          C          -0.143624        4.1436     1.10597     3.03765
    6          C          -0.143635        4.1436     1.10597     3.03767
    7          H           0.143620        0.8564     0.85638
    8          H           0.143638        0.8564     0.85636
    9          H           0.143636        0.8564     0.85636
   10          H           0.143632        0.8564     0.85637
   11          H           0.143635        0.8564     0.85637
   12          H           0.143645        0.8564     0.85636
 DIPOLE           X         Y         Z       TOTAL
 POINT-CHG.     0.000     0.000     0.000     0.000
 HYBRID         0.000     0.000     0.000     0.000
 SUM            0.000     0.000     0.000     0.000


          CARTESIAN COORDINATES 

    NO.       ATOM               X         Y         Z

     1         C                  0.0000    0.0000    0.0000
     2         C                  1.3986    0.0000    0.0000
     3         C                  2.0979    1.2114    0.0000
     4         C                  1.3983    2.4225   -0.0008
     5         C                 -0.0004    2.4224   -0.0015
     6         C                 -0.6995    1.2111   -0.0009
     7         H                 -0.5439   -0.9425    0.0005
     8         H                  1.9427   -0.9424    0.0003
     9         H                  3.1861    1.2115    0.0006
    10         H                  1.9423    3.3650   -0.0010
    11         H                 -0.5445    3.3648   -0.0024
    12         H                 -1.7877    1.2109   -0.0014


          ATOMIC ORBITAL ELECTRON POPULATIONS

   1.10597   0.99788   1.03979   1.00001   1.10599   0.99789   1.03976   1.00000
   1.10599   1.06071   0.97692   0.99999   1.10598   0.99786   1.03979   1.00001
   1.10597   0.99788   1.03978   1.00000   1.10597   1.06072   0.97694   1.00000
   0.85638   0.85636   0.85636   0.85637   0.85637   0.85636

           MULLIKEN POPULATION ANALYSIS



        MULLIKEN POPULATIONS AND CHARGES

      NO.  ATOM   POPULATION      CHARGE
        1    C     4.189801     -0.189801
        2    C     4.189788     -0.189788
        3    C     4.189763     -0.189763
        4    C     4.189792     -0.189792
        5    C     4.189775     -0.189775
        6    C     4.189786     -0.189786
        7    H     0.810229      0.189771
        8    H     0.810212      0.189788
        9    H     0.810213      0.189787
       10    H     0.810222      0.189778
       11    H     0.810214      0.189786
       12    H     0.810205      0.189795
 ******************** TDHF POLARIZABILITIES ********************



          MOLECULAR WEIGHT =   78.11



          ROTATIONAL CONSTANTS IN CM(-1)

          A =    0.18902664   B =    0.18900014   C =    0.09450670



           PRINCIPAL MOMENTS OF INERTIA IN UNITS OF 10**(-40)*GRAM-CM**2

          A =      148.0890   B =      148.1098   C =      296.1988


 ROTATION MATRIX FOR ORIENTATION OF MOLECULE:

         0.920584    0.390545   -0.000313
        -0.390544    0.920584    0.000474
         0.000473   -0.000315    1.000000


          CARTESIAN COORDINATES 

    NO.       ATOM         X         Y         Z

     1         C       -0.1706   -1.3881    0.0002
     2         C        1.1170   -0.8419   -0.0003
     3         C        1.2876    0.5464    0.0001
     4         C        0.1706    1.3881    0.0001
     5         C       -1.1170    0.8418   -0.0001
     6         C       -1.2876   -0.5463    0.0001
     7         H       -0.3032   -2.4682    0.0004
     8         H        1.9859   -1.4970   -0.0006
     9         H        2.2893    0.9715    0.0004
    10         H        0.3033    2.4682    0.0002
    11         H       -1.9860    1.4968   -0.0005
    12         H       -2.2893   -0.9715   -0.0001


 ENERGY OF "REORIENTED" SYSTEM WITHOUT FIELD:       24.1916320194


  NFREQ=  3  IWFLB=  0  IBET=  1  IGAM=  1
  ATOL= 0.10000D-02  BTOL= 0.10000D-02    MAXITU=  500    MAXITA=  150


 *****************************************************************
 CALCULATION OF STATIC FIELD QUANTITIES
 *****************************************************************

 +++++ ALPHA AT       0.00000 EV.

                           COMPONENTS OF ALPHA

                     *X           *Y           *Z
           *=X:      82.8841      -0.0004       0.0002
           *=Y:      -0.0004      82.8800       0.0000
           *=Z:       0.0002       0.0000      40.0899

  ISOTROPIC AVERAGE ALPHA =      68.61801 A.U. =     10.16814 ANG.**3

 +++++ BETA (SECOND HARMONIC GENERATION) AT       0.00000 EV.

                              COMPONENTS OF BETA
            *XX         *XY         *YY         *XZ         *YZ         *ZZ
   *=X     0.00174     0.00427     0.00300     0.00116    -0.00332     0.00047
   *=Y     0.00426     0.00299    -0.00340    -0.00332    -0.00216     0.00070
   *=Z     0.00117    -0.00333    -0.00217     0.00047     0.00071    -0.00038


 AVERAGE BETAX(SHG) VALUE AT   0.00000 EV =          0.0031 a.u. =  0.269907E-34 ESU
 AVERAGE BETAY(SHG) VALUE AT   0.00000 EV =          0.0009 a.u. =  0.811745E-35 ESU
 AVERAGE BETAZ(SHG) VALUE AT   0.00000 EV =         -0.0008 a.u. = -0.713853E-35 ESU



 AVERAGE BETA (SHG) VALUE AT   0.00000 EV =          0.0034 a.u. =  0.290749E-34 ESU
   (1 a.u. = 8.639418X10-33 esu)



 +++++ ALPHA AT       0.00000 EV.

                           COMPONENTS OF ALPHA

                     *X           *Y           *Z
           *=X:      82.8841      -0.0004       0.0002
           *=Y:      -0.0004      82.8800       0.0000
           *=Z:       0.0002       0.0000      40.0899

  ISOTROPIC AVERAGE ALPHA =      68.61801 A.U. =     10.16814 ANG.**3


 GAMMA (THIRD HARMONIC GENERATION) AT    0.00000 EV.


 GAMMA(X,X,X,X) =          1701.21029
 GAMMA(Y,Y,Y,Y) =          1699.51773
 GAMMA(Z,Z,Z,Z) =            35.37641
 GAMMA(X,X,Y,Y) =           567.67988
 GAMMA(X,X,Z,Z) =           675.05472
 GAMMA(Y,Y,X,X) =           567.67987
 GAMMA(Y,Y,Z,Z) =           674.94118
 GAMMA(Z,Z,X,X) =           675.05225
 GAMMA(Z,Z,Y,Y) =           674.93872


 AVERAGE GAMMA VALUE AT    0.00000 =          1454.29021 a.u. =          732.48273 ESU (X10-39)




 **********************************************************************
 CALCULATION FOR A FREQUENCY OF    0.25000 EV  =       0.00919 A.U. 
                  WAVELENGTH OF    4959.37 NM  =    2016.38525 CM(-1)
 **********************************************************************

 +++++ ALPHA AT       0.25000 EV.

                           COMPONENTS OF ALPHA

                     *X           *Y           *Z
           *=X:      82.9611      -0.0004       0.0002
           *=Y:      -0.0004      82.9570       0.0000
           *=Z:       0.0002       0.0000      40.0944

  ISOTROPIC AVERAGE ALPHA =      68.67081 A.U. =     10.17596 ANG.**3

 +++++ BETA (SECOND HARMONIC GENERATION) AT       0.25000 EV.

                              COMPONENTS OF BETA
            *XX         *XY         *YY         *XZ         *YZ         *ZZ
   *=X     0.00169     0.00432     0.00310     0.00118    -0.00338     0.00047
   *=Y     0.00431     0.00311    -0.00345    -0.00338    -0.00221     0.00071
   *=Z     0.00124    -0.00348    -0.00224     0.00047     0.00071    -0.00038


 AVERAGE BETAX(SHG) VALUE AT   0.25000 EV =          0.0032 a.u. =  0.273064E-34 ESU
 AVERAGE BETAY(SHG) VALUE AT   0.25000 EV =          0.0009 a.u. =  0.818776E-35 ESU
 AVERAGE BETAZ(SHG) VALUE AT   0.25000 EV =         -0.0008 a.u. = -0.725713E-35 ESU



 AVERAGE BETA (SHG) VALUE AT   0.25000 EV =          0.0034 a.u. =  0.294167E-34 ESU
   (1 a.u. = 8.639418X10-33 esu)



 +++++ ALPHA AT       0.75000 EV.

                           COMPONENTS OF ALPHA

                     *X           *Y           *Z
           *=X:      83.5460      -0.0004       0.0002
           *=Y:      -0.0004      83.5419       0.0000
           *=Z:       0.0002       0.0000      40.1259

  ISOTROPIC AVERAGE ALPHA =      69.07126 A.U. =     10.23530 ANG.**3


 GAMMA (THIRD HARMONIC GENERATION) AT    0.25000 EV.


 GAMMA(X,X,X,X) =          1752.12721
 GAMMA(Y,Y,Y,Y) =          1750.24557
 GAMMA(Z,Z,Z,Z) =            35.64839
 GAMMA(X,X,Y,Y) =           584.72036
 GAMMA(X,X,Z,Z) =           692.05794
 GAMMA(Y,Y,X,X) =           584.75613
 GAMMA(Y,Y,Z,Z) =           691.94213
 GAMMA(Z,Z,X,X) =           680.72271
 GAMMA(Z,Z,Y,Y) =           680.60836


 AVERAGE GAMMA VALUE AT    0.25000 =          1490.56576 a.u. =          750.75364 ESU (X10-39)




 **********************************************************************
 CALCULATION FOR A FREQUENCY OF    0.50000 EV  =       0.01837 A.U. 
                  WAVELENGTH OF    2479.68 NM  =    4032.77050 CM(-1)
 **********************************************************************

 +++++ ALPHA AT       0.50000 EV.

                           COMPONENTS OF ALPHA

                     *X           *Y           *Z
           *=X:      83.1784      -0.0004       0.0002
           *=Y:      -0.0004      83.1743       0.0000
           *=Z:       0.0002       0.0000      40.1062

  ISOTROPIC AVERAGE ALPHA =      68.81962 A.U. =     10.19802 ANG.**3

 +++++ BETA (SECOND HARMONIC GENERATION) AT       0.50000 EV.

                              COMPONENTS OF BETA
            *XX         *XY         *YY         *XZ         *YZ         *ZZ
   *=X     0.00154     0.00450     0.00343     0.00121    -0.00354     0.00048
   *=Y     0.00445     0.00346    -0.00357    -0.00354    -0.00233     0.00071
   *=Z     0.00144    -0.00391    -0.00246     0.00045     0.00071    -0.00039


 AVERAGE BETAX(SHG) VALUE AT   0.50000 EV =          0.0033 a.u. =  0.282545E-34 ESU
 AVERAGE BETAY(SHG) VALUE AT   0.50000 EV =          0.0010 a.u. =  0.841549E-35 ESU
 AVERAGE BETAZ(SHG) VALUE AT   0.50000 EV =         -0.0009 a.u. = -0.763262E-35 ESU



 AVERAGE BETA (SHG) VALUE AT   0.50000 EV =          0.0035 a.u. =  0.304531E-34 ESU
   (1 a.u. = 8.639418X10-33 esu)



 +++++ ALPHA AT       1.50000 EV.

                           COMPONENTS OF ALPHA

                     *X           *Y           *Z
           *=X:      85.6728      -0.0004       0.0001
           *=Y:      -0.0004      85.6685       0.0000
           *=Z:       0.0001       0.0000      40.2356

  ISOTROPIC AVERAGE ALPHA =      70.52559 A.U. =     10.45081 ANG.**3


 GAMMA (THIRD HARMONIC GENERATION) AT    0.50000 EV.


 GAMMA(X,X,X,X) =          1923.86393
 GAMMA(Y,Y,Y,Y) =          1921.67688
 GAMMA(Z,Z,Z,Z) =            36.51239
 GAMMA(X,X,Y,Y) =           642.04982
 GAMMA(X,X,Z,Z) =           748.10795
 GAMMA(Y,Y,X,X) =           642.18006
 GAMMA(Y,Y,Z,Z) =           747.98496
 GAMMA(Z,Z,X,X) =           698.09808
 GAMMA(Z,Z,Y,Y) =           697.98125


 AVERAGE GAMMA VALUE AT    0.50000 =          1611.69106 a.u. =          811.76085 ESU (X10-39)


 
NAICAS DUMPED:   8.33 PERCENT COMPLETE
NAICAS DUMPED:  16.67 PERCENT COMPLETE
NAICAS DUMPED:  25.00 PERCENT COMPLETE
NAICAS DUMPED:  33.33 PERCENT COMPLETE
NAICAS DUMPED:  41.67 PERCENT COMPLETE
NAICAS DUMPED:  50.00 PERCENT COMPLETE
NAICAS DUMPED:  58.33 PERCENT COMPLETE
NAICAS DUMPED:  66.67 PERCENT COMPLETE
NAICAS DUMPED:  75.00 PERCENT COMPLETE
NAICAS DUMPED:  83.33 PERCENT COMPLETE
NAICAS DUMPED:  91.67 PERCENT COMPLETE
NAICAS DUMPED: 100.00 PERCENT COMPLETE
 
NAICAP DUMPED:  10.00 PERCENT COMPLETE
NAICAP DUMPED:  20.00 PERCENT COMPLETE
NAICAP DUMPED:  30.00 PERCENT COMPLETE
NAICAP DUMPED:  40.00 PERCENT COMPLETE
NAICAP DUMPED:  50.00 PERCENT COMPLETE
NAICAP DUMPED:  60.00 PERCENT COMPLETE
NAICAP DUMPED:  70.00 PERCENT COMPLETE
NAICAP DUMPED:  80.00 PERCENT COMPLETE
NAICAP DUMPED:  90.00 PERCENT COMPLETE
NAICAP DUMPED: 100.00 PERCENT COMPLETE


            ELECTROSTATIC POTENTIAL CHARGES

               ATOM NO.    TYPE    CHARGE
                    1          C    -0.1552
                    2          C    -0.1542
                    3          C    -0.1679
                    4          C    -0.1573
                    5          C    -0.1525
                    6          C    -0.1741
                    7          H     0.1593
                    8          H     0.1579
                    9          H     0.1624
                   10          H     0.1592
                   11          H     0.1587
                   12          H     0.1637

            THE NUMBER OF POINTS IS:       703
            THE RMS DEVIATION IS:       1.1339
            THE RRMS DEVIATION IS:      0.1206


     DIPOLE MOMENT EVALUATED FROM THE POINT CHARGES

             X        Y        Z       TOTAL
           0.0075   0.0044  -0.0002   0.0087

         TIME TO CALCULATE ESP:    0.19 SECONDS



 TOTAL CPU TIME:             0.36 SECONDS

 == MOPAC DONE ==
