Title Card Required                                                     
SP        RB3LYP                                                      6-31+G(d,p)         
Number of atoms                            I                3
Info1-9                                    I   N=           9
          12          12           0           0           0         110
           1          18        -502
Charge                                     I                0
Multiplicity                               I                1
Number of electrons                        I               10
Number of alpha electrons                  I                5
Number of beta electrons                   I                5
Number of basis functions                  I               29
Number of independent functions            I               29
Number of point charges in /Mol/           I                0
Number of translation vectors              I                0
Atomic numbers                             I   N=           3
           8           1           1
Nuclear charges                            R   N=           3
  8.00000000E+00  1.00000000E+00  1.00000000E+00
Current cartesian coordinates              R   N=           9
  1.34678071E-17  1.34678071E-17  2.19945225E-01  2.13498942E-16  1.45549541E+00
 -8.79784678E-01 -4.99488178E-16 -1.45549541E+00 -8.79784678E-01
Force Field                                I                0
Int Atom Types                             I   N=           3
           0           0           0
MM charges                                 R   N=           3
  0.00000000E+00  0.00000000E+00  0.00000000E+00
Integer atomic weights                     I   N=           3
          16           1           1
Real atomic weights                        R   N=           3
  1.59949146E+01  1.00782504E+00  1.00782504E+00
Atom fragment info                         I   N=           3
           0           0           0
Atom residue num                           I   N=           3
           0           0           0
Nuclear spins                              I   N=           3
           0           1           1
Nuclear ZEff                               R   N=           3
 -5.60000000E+00 -1.00000000E+00 -1.00000000E+00
Nuclear QMom                               R   N=           3
  0.00000000E+00  0.00000000E+00  0.00000000E+00
Nuclear GFac                               R   N=           3
  0.00000000E+00  2.79284600E+00  2.79284600E+00
MicOpt                                     I   N=           3
          -1          -1          -1
Number of contracted shells                I               11
Number of primitive shells                 I               22
Pure/Cartesian d shells                    I                1
Pure/Cartesian f shells                    I                0
Highest angular momentum                   I                2
Largest degree of contraction              I                6
Shell types                                I   N=          11
           0          -1          -1          -1           2           0
           0           1           0           0           1
Number of primitives per shell             I   N=          11
           6           3           1           1           1           3
           1           1           3           1           1
Shell to atom map                          I   N=          11
           1           1           1           1           1           2
           2           2           3           3           3
Primitive exponents                        R   N=          22
  5.48467166E+03  8.25234946E+02  1.88046958E+02  5.29645000E+01  1.68975704E+01
  5.79963534E+00  1.55396162E+01  3.59993359E+00  1.01376175E+00  2.70005823E-01
  8.45000000E-02  8.00000000E-01  1.87311370E+01  2.82539436E+00  6.40121692E-01
  1.61277759E-01  1.10000000E+00  1.87311370E+01  2.82539436E+00  6.40121692E-01
  1.61277759E-01  1.10000000E+00
Contraction coefficients                   R   N=          22
  1.83107443E-03  1.39501722E-02  6.84450781E-02  2.32714336E-01  4.70192898E-01
  3.58520853E-01 -1.10777550E-01 -1.48026263E-01  1.13076702E+00  1.00000000E+00
  1.00000000E+00  1.00000000E+00  3.34946043E-02  2.34726953E-01  8.13757326E-01
  1.00000000E+00  1.00000000E+00  3.34946043E-02  2.34726953E-01  8.13757326E-01
  1.00000000E+00  1.00000000E+00
P(S=P) Contraction coefficients            R   N=          22
  0.00000000E+00  0.00000000E+00  0.00000000E+00  0.00000000E+00  0.00000000E+00
  0.00000000E+00  7.08742682E-02  3.39752839E-01  7.27158577E-01  1.00000000E+00
  1.00000000E+00  0.00000000E+00  0.00000000E+00  0.00000000E+00  0.00000000E+00
  0.00000000E+00  0.00000000E+00  0.00000000E+00  0.00000000E+00  0.00000000E+00
  0.00000000E+00  0.00000000E+00
Coordinates of each shell                  R   N=          33
  6.77760880E-34 -1.35552176E-33  2.19945980E-01  6.77760880E-34 -1.35552176E-33
  2.19945980E-01  6.77760880E-34 -1.35552176E-33  2.19945980E-01  6.77760880E-34
 -1.35552176E-33  2.19945980E-01  6.77760880E-34 -1.35552176E-33  2.19945980E-01
  0.00000000E+00  1.45549541E+00 -8.79783922E-01  0.00000000E+00  1.45549541E+00
 -8.79783922E-01  0.00000000E+00  1.45549541E+00 -8.79783922E-01 -1.78246780E-16
 -1.45549541E+00 -8.79783922E-01 -1.78246780E-16 -1.45549541E+00 -8.79783922E-01
 -1.78246780E-16 -1.45549541E+00 -8.79783922E-01
Constraint Structure                       R   N=           9
  6.77760880E-34 -1.35552176E-33  2.19945980E-01  0.00000000E+00  1.45549541E+00
 -8.79783922E-01 -1.78246780E-16 -1.45549541E+00 -8.79783922E-01
Num ILSW                                   I              100
ILSW                                       I   N=         100
           0           1           0           0           2           0
           0           0           0           0         402          -1
           0           0           0           0           0           0
           0           0           0           0           0           0
           1           0           0           0           0           0
           0           0      100000           0          -1           0
           0           0           0           0           0           0
           0           0           0           1           0           0
           0           0           1           0           0           0
           0           0           4          40           0           0
           0           0           5           0           0           0
           0           0           0           0           0           0
           0           0           0           0           0           0
           0           0           0           0           0           0
           0           0           0           0           0           0
           0           0           0           0           0           0
           0           0           0           0
Num RLSW                                   I               40
RLSW                                       R   N=          40
  8.00000000E-01  7.20000000E-01  1.00000000E+00  8.10000000E-01  2.00000000E-01
  0.00000000E+00  0.00000000E+00  1.00000000E+00  0.00000000E+00  0.00000000E+00
  0.00000000E+00  0.00000000E+00  1.00000000E+00  0.00000000E+00  0.00000000E+00
  0.00000000E+00  0.00000000E+00  1.00000000E+00  0.00000000E+00  0.00000000E+00
  0.00000000E+00  0.00000000E+00  1.00000000E+00  0.00000000E+00  0.00000000E+00
  0.00000000E+00  0.00000000E+00  1.00000000E+00  0.00000000E+00  0.00000000E+00
  0.00000000E+00  0.00000000E+00  0.00000000E+00  0.00000000E+00  0.00000000E+00
  0.00000000E+00  0.00000000E+00  0.00000000E+00  1.00000000E+00  1.00000000E+00
MxBond                                     I                2
NBond                                      I   N=           3
           2           1           1
IBond                                      I   N=           6
           2           3           1           0           1           0
RBond                                      R   N=           6
  1.00000000E+00  1.00000000E+00  1.00000000E+00  0.00000000E+00  1.00000000E+00
  0.00000000E+00
Virial Ratio                               R      2.009278637374622E+00
SCF Energy                                 R     -7.643404723970363E+01
Total Energy                               R     -7.643404723970363E+01
RMS Density                                R      4.469905400745003E-09
External E-field                           R   N=          35
  0.00000000E+00  0.00000000E+00  0.00000000E+00  0.00000000E+00  0.00000000E+00
  0.00000000E+00  0.00000000E+00  0.00000000E+00  0.00000000E+00  0.00000000E+00
  0.00000000E+00  0.00000000E+00  0.00000000E+00  0.00000000E+00  0.00000000E+00
  0.00000000E+00  0.00000000E+00  0.00000000E+00  0.00000000E+00  0.00000000E+00
  0.00000000E+00  0.00000000E+00  0.00000000E+00  0.00000000E+00  0.00000000E+00
  0.00000000E+00  0.00000000E+00  0.00000000E+00  0.00000000E+00  0.00000000E+00
  0.00000000E+00  0.00000000E+00  0.00000000E+00  0.00000000E+00  0.00000000E+00
IOpCl                                      I                0
IROHF                                      I                0
Alpha Orbital Energies                     R   N=          29
 -1.91696113E+01 -1.02210198E+00 -5.42395241E-01 -3.94024670E-01 -3.20995288E-01
  2.51432457E-02  1.14426748E-01  1.55052716E-01  1.55058517E-01  2.06173089E-01
  2.41661751E-01  9.00465703E-01  9.88224617E-01  1.08861803E+00  1.11266691E+00
  1.12642632E+00  1.23116705E+00  1.50269641E+00  1.53706875E+00  1.63079129E+00
  2.22982646E+00  2.24055754E+00  2.50040906E+00  2.63306944E+00  2.64472495E+00
  3.02380453E+00  3.31810945E+00  3.50925672E+00  3.92163884E+00
Alpha MO coefficients                      R   N=         841
  9.92764920E-01  2.59271381E-02  0.00000000E+00  0.00000000E+00 -1.26378827E-03
  1.18002550E-02  0.00000000E+00  0.00000000E+00  4.95916104E-04 -9.19591034E-04
  0.00000000E+00  0.00000000E+00 -7.21918525E-04 -8.06161093E-03 -7.97653979E-03
 -8.00924081E-03  0.00000000E+00  0.00000000E+00  0.00000000E+00  3.00091328E-04
 -1.04685561E-03  0.00000000E+00  1.30257140E-04 -9.75908362E-05  3.00091328E-04
 -1.04685561E-03  0.00000000E+00 -1.30257140E-04 -9.75908362E-05 -2.11633936E-01
  4.72384375E-01  0.00000000E+00  0.00000000E+00 -1.17008897E-01  4.28665588E-01
  0.00000000E+00  0.00000000E+00 -4.28047539E-02  2.47153453E-02  0.00000000E+00
  0.00000000E+00 -1.27669700E-02 -8.17386633E-03  6.07075035E-04  2.74155649E-03
  0.00000000E+00  0.00000000E+00  0.00000000E+00  1.51580216E-01 -3.09698548E-03
  0.00000000E+00 -2.07820775E-02  1.20559960E-02  1.51580216E-01 -3.09698548E-03
  0.00000000E+00  2.07820775E-02  1.20559960E-02  0.00000000E+00  0.00000000E+00
  0.00000000E+00  5.20288853E-01  0.00000000E+00  0.00000000E+00  0.00000000E+00
  2.46047031E-01  0.00000000E+00  0.00000000E+00  0.00000000E+00  1.71572059E-02
  0.00000000E+00  0.00000000E+00  0.00000000E+00  0.00000000E+00  0.00000000E+00
  0.00000000E+00 -2.82789085E-02  2.46008257E-01  1.30464465E-01  0.00000000E+00
 -7.02875818E-03  1.58503528E-02 -2.46008257E-01 -1.30464465E-01  0.00000000E+00
 -7.02875818E-03 -1.58503528E-02 -7.99627100E-02  1.82697175E-01  0.00000000E+00
  0.00000000E+00  5.61617870E-01  3.19438825E-01  0.00000000E+00  0.00000000E+00
  3.25844828E-01  4.65378982E-02  0.00000000E+00  0.00000000E+00  7.96386926E-02
  8.87107158E-03  8.59472043E-03 -3.26262599E-02  0.00000000E+00  0.00000000E+00
  0.00000000E+00 -1.44538850E-01 -9.75923284E-02  0.00000000E+00  1.34230320E-02
  9.61700751E-03 -1.44538850E-01 -9.75923284E-02  0.00000000E+00 -1.34230320E-02
  9.61700751E-03  0.00000000E+00  0.00000000E+00  6.43380062E-01  0.00000000E+00
  0.00000000E+00  0.00000000E+00  4.19908577E-01  0.00000000E+00  0.00000000E+00
  0.00000000E+00  1.28028543E-01  0.00000000E+00  0.00000000E+00  0.00000000E+00
  0.00000000E+00  0.00000000E+00  0.00000000E+00 -2.73344987E-02  0.00000000E+00
  0.00000000E+00  0.00000000E+00  2.26224334E-02  0.00000000E+00  0.00000000E+00
  0.00000000E+00  0.00000000E+00  2.26224334E-02  0.00000000E+00  0.00000000E+00
  9.51984684E-02 -1.11348655E-01  0.00000000E+00  0.00000000E+00  2.20604340E-01
 -1.03913274E+00  0.00000000E+00  0.00000000E+00  2.22647962E-01  1.34039660E+00
  0.00000000E+00  0.00000000E+00 -4.37295289E-01  5.38087652E-02  6.40261330E-02
  4.73567510E-02  0.00000000E+00  0.00000000E+00  0.00000000E+00  7.92167875E-02
  3.22410902E-02  0.00000000E+00  2.13133058E-02 -1.24093108E-02  7.92167875E-02
  3.22410902E-02  0.00000000E+00 -2.13133058E-02 -1.24093108E-02  0.00000000E+00
  0.00000000E+00  0.00000000E+00 -3.36460502E-01  0.00000000E+00  0.00000000E+00
  0.00000000E+00 -5.75718240E-01  0.00000000E+00  0.00000000E+00  0.00000000E+00
  9.49690503E-01  0.00000000E+00  0.00000000E+00  0.00000000E+00  0.00000000E+00
  0.00000000E+00  0.00000000E+00  2.23759860E-02  6.18887346E-02  3.11666323E-01
  0.00000000E+00  4.41639758E-03 -2.72047114E-03 -6.18887346E-02 -3.11666323E-01
  0.00000000E+00  4.41639758E-03  2.72047114E-03  5.83381685E-02 -5.13018666E-02
  0.00000000E+00  0.00000000E+00 -1.88562285E-01 -7.00083952E-01  0.00000000E+00
  0.00000000E+00 -3.16420143E-01  6.88365497E-02  0.00000000E+00  0.00000000E+00
  1.32435911E+00  3.25870777E-02  4.62122274E-02  5.08440693E-02  0.00000000E+00
  0.00000000E+00  0.00000000E+00  2.78198334E-02  4.56666999E-01  0.00000000E+00
  7.69219607E-03  3.91645479E-03  2.78198334E-02  4.56666999E-01  0.00000000E+00
 -7.69219607E-03  3.91645479E-03  0.00000000E+00  0.00000000E+00 -2.72104556E-01
  0.00000000E+00  0.00000000E+00  0.00000000E+00 -4.67005046E-01  0.00000000E+00
  0.00000000E+00  0.00000000E+00  1.20064944E+00  0.00000000E+00  0.00000000E+00
  0.00000000E+00  0.00000000E+00  0.00000000E+00  0.00000000E+00  9.87681406E-03
  0.00000000E+00  0.00000000E+00  0.00000000E+00  6.96351480E-03  0.00000000E+00
  0.00000000E+00  0.00000000E+00  0.00000000E+00  6.96351480E-03  0.00000000E+00
  0.00000000E+00  0.00000000E+00  0.00000000E+00  0.00000000E+00 -2.40018767E-01
  0.00000000E+00  0.00000000E+00  0.00000000E+00 -5.37772303E-01  0.00000000E+00
  0.00000000E+00  0.00000000E+00 -1.54108862E+00  0.00000000E+00  0.00000000E+00
  0.00000000E+00  0.00000000E+00  0.00000000E+00  0.00000000E+00 -1.82582831E-02
  1.64359240E-01  1.87795548E+00  0.00000000E+00 -8.62988375E-03 -1.04996329E-02
 -1.64359240E-01 -1.87795548E+00  0.00000000E+00 -8.62988375E-03  1.04996329E-02
 -4.69638766E-02  5.74829844E-02  0.00000000E+00  0.00000000E+00 -2.36160197E-01
  8.08767762E-01  0.00000000E+00  0.00000000E+00 -6.14734667E-01  3.30566074E+00
  0.00000000E+00  0.00000000E+00 -1.10146723E+00 -2.85420068E-03 -3.70381252E-02
  3.59372463E-03  0.00000000E+00  0.00000000E+00  0.00000000E+00 -1.68486504E-01
 -2.41343321E+00  0.00000000E+00 -1.30155414E-03 -7.96674981E-03 -1.68486504E-01
 -2.41343321E+00  0.00000000E+00  1.30155414E-03 -7.96674981E-03  0.00000000E+00
  0.00000000E+00  0.00000000E+00  6.23131854E-01  0.00000000E+00  0.00000000E+00
  0.00000000E+00 -8.93707481E-01  0.00000000E+00  0.00000000E+00  0.00000000E+00
 -7.15168856E-01  0.00000000E+00  0.00000000E+00  0.00000000E+00  0.00000000E+00
  0.00000000E+00  0.00000000E+00  3.12188269E-01 -5.77966116E-01  1.85062997E+00
  0.00000000E+00 -1.19841518E-01  1.34149005E-01  5.77966116E-01 -1.85062997E+00
  0.00000000E+00 -1.19841518E-01 -1.34149005E-01 -4.28320427E-03  6.92330771E-01
  0.00000000E+00  0.00000000E+00 -6.34974252E-01 -1.89211897E+00  0.00000000E+00
  0.00000000E+00  1.08706670E+00 -1.88542812E+00  0.00000000E+00  0.00000000E+00
  5.39043242E-01  2.70956485E-01 -4.28382173E-02  9.61168736E-02  0.00000000E+00
  0.00000000E+00  0.00000000E+00 -5.23469802E-01  2.16556246E+00  0.00000000E+00
 -1.47305971E-01  8.67779050E-02 -5.23469802E-01  2.16556246E+00  0.00000000E+00
  1.47305971E-01  8.67779050E-02  0.00000000E+00  0.00000000E+00  0.00000000E+00
 -6.25267070E-01  0.00000000E+00  0.00000000E+00  0.00000000E+00  1.56242096E+00
  0.00000000E+00  0.00000000E+00  0.00000000E+00 -9.06098440E-01  0.00000000E+00
  0.00000000E+00  0.00000000E+00  0.00000000E+00  0.00000000E+00  0.00000000E+00
  1.44006467E-01 -5.79433340E-01  4.51559361E-01  0.00000000E+00  1.05977670E-01
 -7.72228488E-03  5.79433340E-01 -4.51559361E-01  0.00000000E+00  1.05977670E-01
  7.72228488E-03  0.00000000E+00  0.00000000E+00 -9.72164304E-01  0.00000000E+00
  0.00000000E+00  0.00000000E+00  1.43877214E+00  0.00000000E+00  0.00000000E+00
  0.00000000E+00 -6.98992554E-01  0.00000000E+00  0.00000000E+00  0.00000000E+00
  0.00000000E+00  0.00000000E+00  0.00000000E+00 -3.91012559E-02  0.00000000E+00
  0.00000000E+00  0.00000000E+00  2.46624831E-02  0.00000000E+00  0.00000000E+00
  0.00000000E+00  0.00000000E+00  2.46624831E-02  0.00000000E+00  0.00000000E+00
  2.76495602E-02 -2.31881557E-01  0.00000000E+00  0.00000000E+00 -6.35010572E-01
  2.89095836E-01  0.00000000E+00  0.00000000E+00  1.24565302E+00  6.99756398E-01
  0.00000000E+00  0.00000000E+00 -9.00392029E-01 -1.87834313E-01  1.77573528E-01
 -1.48304744E-01  0.00000000E+00  0.00000000E+00  0.00000000E+00  6.08219029E-01
 -7.90514602E-01  0.00000000E+00  4.92814773E-02  9.46605764E-02  6.08219029E-01
 -7.90514602E-01  0.00000000E+00 -4.92814773E-02  9.46605764E-02 -7.75466993E-02
 -1.57679348E+00  0.00000000E+00  0.00000000E+00 -2.03916423E-01  3.58002458E+00
  0.00000000E+00  0.00000000E+00  1.20171486E-01 -1.17056514E+00  0.00000000E+00
  0.00000000E+00 -1.18248806E-01 -3.10922414E-01 -6.85474525E-01 -4.12710276E-01
  0.00000000E+00  0.00000000E+00  0.00000000E+00 -3.10052020E-01  3.26179305E-02
  0.00000000E+00 -6.76580830E-02 -5.00357739E-02 -3.10052020E-01  3.26179305E-02
  0.00000000E+00  6.76580830E-02 -5.00357739E-02  0.00000000E+00  0.00000000E+00
  0.00000000E+00  0.00000000E+00  0.00000000E+00  0.00000000E+00  0.00000000E+00
  0.00000000E+00  0.00000000E+00  0.00000000E+00  0.00000000E+00  0.00000000E+00
  0.00000000E+00  0.00000000E+00  0.00000000E+00  0.00000000E+00  6.79662346E-01
  0.00000000E+00  0.00000000E+00  0.00000000E+00  0.00000000E+00  3.49031004E-01
  0.00000000E+00  0.00000000E+00  0.00000000E+00  0.00000000E+00 -3.49031004E-01
  0.00000000E+00  0.00000000E+00  2.83180670E-02  2.59533719E-01  0.00000000E+00
  0.00000000E+00 -8.68700193E-02 -7.33636330E-01  0.00000000E+00  0.00000000E+00
  5.53758195E-01  2.24398283E-01  0.00000000E+00  0.00000000E+00 -1.69329700E-01
 -3.02365728E-01 -2.33319604E-01  7.91064914E-01  0.00000000E+00  0.00000000E+00
  0.00000000E+00  2.86792696E-01 -7.03048610E-02  0.00000000E+00 -1.67157846E-01
 -2.43440518E-01  2.86792696E-01 -7.03048610E-02  0.00000000E+00  1.67157846E-01
 -2.43440518E-01  0.00000000E+00  0.00000000E+00 -3.47545481E-02  0.00000000E+00
  0.00000000E+00  0.00000000E+00  2.98573402E-01  0.00000000E+00  0.00000000E+00
  0.00000000E+00 -8.12811785E-02  0.00000000E+00  0.00000000E+00  0.00000000E+00
  0.00000000E+00  0.00000000E+00  0.00000000E+00  7.93932254E-01  0.00000000E+00
  0.00000000E+00  0.00000000E+00 -2.91765659E-01  0.00000000E+00  0.00000000E+00
  0.00000000E+00  0.00000000E+00 -2.91765659E-01  0.00000000E+00  0.00000000E+00
 -5.09818464E-02 -5.60147624E-01  0.00000000E+00  0.00000000E+00  1.94106819E-01
  1.33881649E+00  0.00000000E+00  0.00000000E+00 -6.38071408E-01 -3.78806909E-01
  0.00000000E+00  0.00000000E+00  1.78072736E-01 -1.06108330E+00  5.06737020E-01
  2.93006896E-02  0.00000000E+00  0.00000000E+00  0.00000000E+00 -7.02272755E-01
  2.03667086E-01  0.00000000E+00 -1.41498383E-01  1.73034900E-01 -7.02272755E-01
  2.03667086E-01  0.00000000E+00  1.41498383E-01  1.73034900E-01  0.00000000E+00
  0.00000000E+00  0.00000000E+00  6.24256206E-02  0.00000000E+00  0.00000000E+00
  0.00000000E+00 -5.40390205E-01  0.00000000E+00  0.00000000E+00  0.00000000E+00
  8.92568131E-02  0.00000000E+00  0.00000000E+00  0.00000000E+00  0.00000000E+00
  0.00000000E+00  0.00000000E+00 -1.23478479E-01  1.60754827E-01  1.82553768E-02
  0.00000000E+00  4.78526747E-01  5.80959918E-01 -1.60754827E-01 -1.82553768E-02
  0.00000000E+00  4.78526747E-01 -5.80959918E-01  0.00000000E+00  0.00000000E+00
  0.00000000E+00  3.89041991E-01  0.00000000E+00  0.00000000E+00  0.00000000E+00
 -5.55102688E-01  0.00000000E+00  0.00000000E+00  0.00000000E+00  4.07063388E-01
  0.00000000E+00  0.00000000E+00  0.00000000E+00  0.00000000E+00  0.00000000E+00
  0.00000000E+00  7.59537299E-01  6.30102320E-01 -6.07858529E-01  0.00000000E+00
  3.30767650E-01 -2.77600960E-01 -6.30102320E-01  6.07858529E-01  0.00000000E+00
  3.30767650E-01  2.77600960E-01  0.00000000E+00  0.00000000E+00  0.00000000E+00
  0.00000000E+00  0.00000000E+00  0.00000000E+00  0.00000000E+00  0.00000000E+00
  0.00000000E+00  0.00000000E+00  0.00000000E+00  0.00000000E+00  0.00000000E+00
  0.00000000E+00  0.00000000E+00  0.00000000E+00  8.85469892E-01  0.00000000E+00
  0.00000000E+00  0.00000000E+00  0.00000000E+00 -7.12128124E-01  0.00000000E+00
  0.00000000E+00  0.00000000E+00  0.00000000E+00  7.12128124E-01  0.00000000E+00
  0.00000000E+00  0.00000000E+00  0.00000000E+00  2.60220431E-02  0.00000000E+00
  0.00000000E+00  0.00000000E+00 -5.20936918E-01  0.00000000E+00  0.00000000E+00
  0.00000000E+00  1.04165337E-01  0.00000000E+00  0.00000000E+00  0.00000000E+00
  0.00000000E+00  0.00000000E+00  0.00000000E+00  7.19580707E-01  0.00000000E+00
  0.00000000E+00  0.00000000E+00  7.66624787E-01  0.00000000E+00  0.00000000E+00
  0.00000000E+00  0.00000000E+00  7.66624787E-01  0.00000000E+00  0.00000000E+00
  3.76244926E-03 -1.03523209E-01  0.00000000E+00  0.00000000E+00  7.14639149E-02
  1.50334533E-01  0.00000000E+00  0.00000000E+00 -5.23495512E-01  1.98446254E-01
  0.00000000E+00  0.00000000E+00  9.37109499E-03 -5.15122165E-02 -8.19594676E-01
  8.80733805E-01  0.00000000E+00  0.00000000E+00  0.00000000E+00 -2.44549453E-02
 -1.74049654E-01  0.00000000E+00  4.46302110E-01  6.88549608E-01 -2.44549453E-02
 -1.74049654E-01  0.00000000E+00 -4.46302110E-01  6.88549608E-01 -2.60977540E-01
  2.18167397E-01  0.00000000E+00  0.00000000E+00 -4.19024827E-01  2.99213622E+00
  0.00000000E+00  0.00000000E+00 -8.24718979E-01  4.05685791E-01  0.00000000E+00
  0.00000000E+00 -1.95679034E-01 -1.22315392E+00 -6.00666345E-02 -4.17091011E-01
  0.00000000E+00  0.00000000E+00  0.00000000E+00 -6.80752312E-01 -9.07607189E-01
  0.00000000E+00  7.59546231E-01 -4.60784590E-01 -6.80752312E-01 -9.07607189E-01
  0.00000000E+00 -7.59546231E-01 -4.60784590E-01  0.00000000E+00  0.00000000E+00
  0.00000000E+00 -6.83267555E-01  0.00000000E+00  0.00000000E+00  0.00000000E+00
 -1.39503972E+00  0.00000000E+00  0.00000000E+00  0.00000000E+00  1.07851789E-01
  0.00000000E+00  0.00000000E+00  0.00000000E+00  0.00000000E+00  0.00000000E+00
  0.00000000E+00  1.48487235E+00  1.22460811E+00  4.32708986E-01  0.00000000E+00
 -8.17915027E-01  6.64972129E-01 -1.22460811E+00 -4.32708986E-01  0.00000000E+00
 -8.17915027E-01 -6.64972129E-01 -4.26346812E-01 -1.88340070E-02  0.00000000E+00
  0.00000000E+00  3.81357615E-01  3.05771563E+00  0.00000000E+00  0.00000000E+00
  5.11806377E-01 -6.57078409E-01  0.00000000E+00  0.00000000E+00 -1.68590760E-01
 -1.19388903E+00 -2.08697976E+00 -1.72626756E+00  0.00000000E+00  0.00000000E+00
  0.00000000E+00  6.97269190E-01  5.29518608E-03  0.00000000E+00 -5.96158610E-01
  4.30735227E-01  6.97269190E-01  5.29518608E-03  0.00000000E+00  5.96158610E-01
  4.30735227E-01
Total SCF Density                          R   N=         435
  2.07353029E+00 -1.77683945E-01  5.14394943E-01  0.00000000E+00  0.00000000E+00
  8.27875809E-01  0.00000000E+00  0.00000000E+00  3.08148791E-33  5.41400982E-01
 -4.28001564E-02  9.46001144E-02  0.00000000E+00  2.02828040E-33  6.58214622E-01
 -2.09097001E-01  5.22322887E-01  0.00000000E+00  7.96441070E-34  2.58459904E-01
  5.71869191E-01  0.00000000E+00  0.00000000E+00  5.40321613E-01  6.16297582E-33
 -1.66499452E-33  0.00000000E+00  3.52646426E-01  0.00000000E+00  0.00000000E+00
  6.16297582E-33  2.56031055E-01  1.57791320E-33  0.00000000E+00  3.08148791E-33
  1.21078283E-01 -3.30083376E-02  7.86469803E-02  0.00000000E+00  1.15868992E-33
  3.76016377E-01  1.71488832E-01  0.00000000E+00  6.65646654E-34  2.16014689E-01
 -1.97296799E-02  4.03072861E-02  0.00000000E+00  1.43263070E-34  4.64915243E-02
  5.08995563E-02  0.00000000E+00  8.69333537E-35  2.82114862E-02  5.55493982E-03
  0.00000000E+00  0.00000000E+00  1.64742024E-01  1.54074396E-33 -5.07650555E-34
  0.00000000E+00  1.07520567E-01  1.15555797E-33 -3.31323326E-34  0.00000000E+00
  3.27826157E-02  0.00000000E+00  0.00000000E+00  1.54074396E-33  1.78534060E-02
  1.10030109E-34  0.00000000E+00  1.15555797E-33  8.44295914E-03  5.20337530E-35
  0.00000000E+00  3.85185989E-34  5.88739429E-04 -8.76579389E-03  1.70002594E-02
  0.00000000E+00  2.84860596E-34  9.24425486E-02  3.99168217E-02  0.00000000E+00
  1.63294115E-34  5.29919701E-02  6.78268233E-03  0.00000000E+00  4.00953226E-35
  1.30116761E-02 -1.39655439E-02 -4.89900304E-03  0.00000000E+00  3.66620368E-35
  1.18975111E-02 -1.53043920E-03  0.00000000E+00  1.99463187E-35  6.47295049E-03
  4.36468965E-04  0.00000000E+00  5.03303041E-36  1.63331175E-03  4.20995145E-04
 -1.74691274E-02  3.30039010E-03  0.00000000E+00  2.93727185E-35  9.53199211E-03
  5.82318874E-03  0.00000000E+00  1.70751643E-35  5.54120761E-03  8.44638896E-04
  0.00000000E+00  4.20610898E-36  1.36496040E-03  2.71171981E-04  2.75725893E-04
 -1.18452311E-02 -9.74662748E-03  0.00000000E+00 -1.14841847E-34 -3.72683102E-02
 -1.86827886E-02  0.00000000E+00 -6.62669143E-35 -2.15048432E-02 -2.88646764E-03
  0.00000000E+00 -1.61934164E-35 -5.25506406E-03 -4.94543239E-04 -4.29726447E-04
  2.27227381E-03 -5.55968086E-35 -1.11193617E-34 -2.06156547E-51  1.03078273E-51
  5.55968086E-35 -1.11193617E-34 -8.12020074E-52  4.06010037E-52  0.00000000E+00
 -5.21220081E-36 -2.33869973E-52  1.16934986E-52  0.00000000E+00  5.21220081E-36
  1.19446268E-36 -1.73740027E-36  1.54352354E-36  4.96921390E-35  0.00000000E+00
 -3.51729429E-02 -1.66790426E-34  1.08384998E-34  0.00000000E+00 -2.29559809E-02
 -5.55968086E-35  7.07385776E-35  0.00000000E+00 -6.99919208E-03 -8.33952129E-35
  2.15679258E-35 -1.49798314E-36 -9.64882989E-37 -6.21610114E-36  4.60482034E-36
  1.49434964E-03 -1.66464801E-34  0.00000000E+00 -1.66790426E-34 -2.94264018E-02
 -1.81354203E-34  0.00000000E+00 -5.55968086E-35 -1.39158830E-02 -8.57632502E-35
  0.00000000E+00 -8.33952129E-35 -9.70374114E-04 -5.98039220E-36  1.70084327E-37
  8.96955444E-36  2.20999571E-35  0.00000000E+00  6.01853108E-36  1.59939334E-03
 -4.04477589E-02  9.04101333E-02 -3.08148791E-33  2.55990708E-01 -1.97824428E-01
  3.76188866E-02 -1.54074396E-33  1.21059202E-01 -1.07170883E-01 -5.96090573E-03
 -9.62964972E-35  8.44162864E-03 -2.68926435E-02 -5.04726025E-03 -2.30528826E-03
  1.02578486E-02 -8.33952129E-35  2.22387234E-34 -1.39136900E-02  2.08776387E-01
  1.48397855E-02 -3.86399044E-02 -1.54074396E-33  1.35758414E-01 -1.08891796E-01
 -6.50294060E-02 -7.70371978E-34  6.42007887E-02 -6.33358178E-02 -9.23464447E-03
 -4.81482486E-35  4.47681140E-03 -1.54636612E-02 -1.66398969E-03 -1.66461719E-03
  6.36793325E-03 -2.57895352E-37  8.33952129E-35 -7.37878538E-03  9.14629256E-02
  5.31118531E-02 -7.22223729E-35  1.92592994E-34  2.91096453E-02  3.85185989E-34
 -2.88889492E-34  1.44444746E-34  1.89987077E-02  2.88889492E-34 -1.92592994E-34
 -3.00926554E-36  5.79263438E-03  4.81482486E-35 -4.81482486E-35 -6.01853108E-36
 -3.00926554E-36  1.80555932E-35 -7.03531239E-36 -1.23674575E-03 -2.08488032E-35
  1.44444746E-34  4.81482486E-35  1.02354899E-03  6.90833111E-03 -1.47228029E-02
  3.85185989E-34 -7.31396907E-03  1.99402759E-02 -9.23837367E-03  2.88889492E-34
 -3.45881016E-03  1.05269237E-02  2.21847383E-04  4.81482486E-35 -2.41187703E-04
  2.66844568E-03  5.75793036E-04  2.03423850E-04 -9.91923657E-04  3.47480054E-36
 -2.08488032E-35  3.97531219E-04 -1.36387897E-02 -4.32552538E-03  3.00926554E-36
  1.32298588E-03 -6.83468924E-03  1.48990679E-02 -2.88889492E-34  1.64935238E-02
  7.98109565E-03  1.64777692E-02 -9.62964972E-35  7.79986448E-03  5.23509964E-03
  1.49122633E-03 -6.01853108E-36  5.43895533E-04  1.22407564E-03 -2.48883965E-05
  1.81505645E-04 -5.59866327E-04 -3.47480054E-36  1.38992021E-35 -8.96461354E-04
  8.67341530E-03  2.18425314E-03  3.00926554E-36 -4.65760504E-04  9.78154161E-04
 -4.04477589E-02  9.04101333E-02  3.08148791E-33 -2.55990708E-01 -1.97824428E-01
  3.76188866E-02  1.54074396E-33 -1.21059202E-01 -1.07170883E-01 -5.96090573E-03
  9.62964972E-35 -8.44162864E-03 -2.68926435E-02 -5.04726025E-03 -2.30528826E-03
  1.02578486E-02 -8.33952129E-35 -1.11193617E-34  1.39136900E-02 -3.33038629E-02
 -3.69184175E-02  7.22223729E-35 -6.72225951E-03 -6.92385536E-03  2.08776387E-01
  1.48397855E-02 -3.86399044E-02  1.54074396E-33 -1.35758414E-01 -1.08891796E-01
 -6.50294060E-02  7.70371978E-34 -6.42007887E-02 -6.33358178E-02 -9.23464447E-03
  4.81482486E-35 -4.47681140E-03 -1.54636612E-02 -1.66398969E-03 -1.66461719E-03
  6.36793325E-03 -2.57895352E-37 -8.33952129E-35  7.37878538E-03 -3.69184175E-02
 -1.49720539E-02  9.02779661E-36 -6.57512664E-04 -6.08737809E-03  9.14629256E-02
  5.31118531E-02  7.22223729E-35 -1.92592994E-34  2.91096453E-02  3.85185989E-34
  9.62964972E-35 -1.44444746E-34  1.89987077E-02  2.88889492E-34  9.62964972E-35
  3.00926554E-36  5.79263438E-03  4.81482486E-35  2.40741243E-35  6.01853108E-36
  3.00926554E-36 -6.01853108E-36 -5.86721782E-37 -1.23674575E-03 -2.08488032E-35
 -7.22223729E-35 -9.02779661E-36  1.02354899E-03  2.40741243E-35 -3.47946328E-36
 -1.44444746E-34 -4.81482486E-35  1.02354899E-03 -6.90833111E-03  1.47228029E-02
  3.85185989E-34 -7.31396907E-03 -1.99402759E-02  9.23837367E-03  2.88889492E-34
 -3.45881016E-03 -1.05269237E-02 -2.21847383E-04  4.81482486E-35 -2.41187703E-04
 -2.66844568E-03 -5.75793036E-04 -2.03423850E-04  9.91923657E-04 -3.47480054E-36
 -1.38992021E-35  3.97531219E-04  6.72225951E-03  6.57512664E-04  2.40741243E-35