 Entering Gaussian System, Link 0=g09
 Input=/home/est863/workspace/863program/src/forguassian/WATERopt/WATERopt.gjf
 Output=/home/est863/workspace/863program/src/forguassian/WATERopt/WATERopt.Fluoptlog
 Initial command:
 /home/est863/Gaussian/g09/l1.exe /home/est863/Gaussian/g09/scratch/Gau-10723.inp -scrdir=/home/est863/Gaussian/g09/scratch/
 Entering Link 1 = /home/est863/Gaussian/g09/l1.exe PID=     10724.
  
 Copyright (c) 1988,1990,1992,1993,1995,1998,2003,2009, Gaussian, Inc.
                  All Rights Reserved.
  
 This is part of the Gaussian(R) 09 program.  It is based on
 the Gaussian(R) 03 system (copyright 2003, Gaussian, Inc.),
 the Gaussian(R) 98 system (copyright 1998, Gaussian, Inc.),
 the Gaussian(R) 94 system (copyright 1995, Gaussian, Inc.),
 the Gaussian 92(TM) system (copyright 1992, Gaussian, Inc.),
 the Gaussian 90(TM) system (copyright 1990, Gaussian, Inc.),
 the Gaussian 88(TM) system (copyright 1988, Gaussian, Inc.),
 the Gaussian 86(TM) system (copyright 1986, Carnegie Mellon
 University), and the Gaussian 82(TM) system (copyright 1983,
 Carnegie Mellon University). Gaussian is a federally registered
 trademark of Gaussian, Inc.
  
 This software contains proprietary and confidential information,
 including trade secrets, belonging to Gaussian, Inc.
  
 This software is provided under written license and may be
 used, copied, transmitted, or stored only in accord with that
 written license.
  
 The following legend is applicable only to US Government
 contracts under FAR:
  
                    RESTRICTED RIGHTS LEGEND
  
 Use, reproduction and disclosure by the US Government is
 subject to restrictions as set forth in subparagraphs (a)
 and (c) of the Commercial Computer Software - Restricted
 Rights clause in FAR 52.227-19.
  
 Gaussian, Inc.
 340 Quinnipiac St., Bldg. 40, Wallingford CT 06492
  
  
 ---------------------------------------------------------------
 Warning -- This program may not be used in any manner that
 competes with the business of Gaussian, Inc. or will provide
 assistance to any competitor of Gaussian, Inc.  The licensee
 of this program is prohibited from giving any competitor of
 Gaussian, Inc. access to this program.  By using this program,
 the user acknowledges that Gaussian, Inc. is engaged in the
 business of creating and licensing software in the field of
 computational chemistry and represents and warrants to the
 licensee that it is not a competitor of Gaussian, Inc. and that
 it will not use this program in any manner prohibited above.
 ---------------------------------------------------------------
  

 Cite this work as:
 Gaussian 09, Revision A.01,
 M. J. Frisch, G. W. Trucks, H. B. Schlegel, G. E. Scuseria, 
 M. A. Robb, J. R. Cheeseman, G. Scalmani, V. Barone, B. Mennucci, 
 G. A. Petersson, H. Nakatsuji, M. Caricato, X. Li, H. P. Hratchian, 
 A. F. Izmaylov, J. Bloino, G. Zheng, J. L. Sonnenberg, M. Hada, 
 M. Ehara, K. Toyota, R. Fukuda, J. Hasegawa, M. Ishida, T. Nakajima, 
 Y. Honda, O. Kitao, H. Nakai, T. Vreven, J. A. Montgomery, Jr., 
 J. E. Peralta, F. Ogliaro, M. Bearpark, J. J. Heyd, E. Brothers, 
 K. N. Kudin, V. N. Staroverov, R. Kobayashi, J. Normand, 
 K. Raghavachari, A. Rendell, J. C. Burant, S. S. Iyengar, J. Tomasi, 
 M. Cossi, N. Rega, J. M. Millam, M. Klene, J. E. Knox, J. B. Cross, 
 V. Bakken, C. Adamo, J. Jaramillo, R. Gomperts, R. E. Stratmann, 
 O. Yazyev, A. J. Austin, R. Cammi, C. Pomelli, J. W. Ochterski, 
 R. L. Martin, K. Morokuma, V. G. Zakrzewski, G. A. Voth, 
 P. Salvador, J. J. Dannenberg, S. Dapprich, A. D. Daniels, 
 O. Farkas, J. B. Foresman, J. V. Ortiz, J. Cioslowski, 
 and D. J. Fox, Gaussian, Inc., Wallingford CT, 2009.
 
 ******************************************
 Gaussian 09:  EM64L-G09RevA.01  8-May-2009
                17-Oct-2012 
 ******************************************
 %chk=WATERopt.chk
 %nproc=2
 Will use up to    2 processors via shared memory.
 %mem=2GB
 ----------------------------------------------------------
 #p rb3lyp/6-31+g(d,p) opt freq scrf=(iefpcm,solvent=water)
 ----------------------------------------------------------
 1/14=-1,18=20,19=15,26=3,38=1/1,3;
 2/9=110,12=2,17=6,18=5,40=1/2;
 3/5=1,6=6,7=111,11=2,16=1,25=1,30=1,70=2201,71=1,72=1,74=-5,116=1/1,2,3;
 4//1;
 5/5=2,38=5,53=1/2;
 6/7=2,8=2,9=2,10=2,28=1/1;
 7//1,2,3,16;
 1/14=-1,18=20,19=15/3(2);
 2/9=110/2;
 99//99;
 2/9=110/2;
 3/5=1,6=6,7=111,11=2,16=1,25=1,30=1,70=2205,71=1,72=1,74=-5,116=1/1,2,3;
 4/5=5,16=3/1;
 5/5=2,38=5,53=1/2;
 7//1,2,3,16;
 1/14=-1,18=20,19=15/3(-5);
 2/9=110/2;
 6/7=2,8=2,9=2,10=2,19=2,28=1/1;
 99/9=1/99;
 Leave Link    1 at Wed Oct 17 12:53:28 2012, MaxMem=  268435456 cpu:       0.1
 (Enter /home/est863/Gaussian/g09/l101.exe)
 -------------------
 Title Card Required
 -------------------
 Symbolic Z-matrix:
 Charge =  0 Multiplicity = 1
 O                     0.        0.        0.11704 
 H                     0.        0.76349  -0.46817 
 H                     0.       -0.76349  -0.46817 
 
 NAtoms=      3 NQM=      3 NQMF=      0 NMic=      0 NMicF=      0 NTot=      3.
                    Isotopes and Nuclear Properties:
 (Nuclear quadrupole moments (NQMom) in fm**2, nuclear magnetic moments (NMagM)
  in nuclear magnetons)

  Atom         1           2           3
 IAtWgt=          16           1           1
 AtmWgt=  15.9949146   1.0078250   1.0078250
 NucSpn=           0           1           1
 AtZEff=   0.0000000   0.0000000   0.0000000
 NQMom=    0.0000000   0.0000000   0.0000000
 NMagM=    0.0000000   2.7928460   2.7928460
 Leave Link  101 at Wed Oct 17 12:53:28 2012, MaxMem=  268435456 cpu:       0.1
 (Enter /home/est863/Gaussian/g09/l103.exe)

 GradGradGradGradGradGradGradGradGradGradGradGradGradGradGradGradGradGrad
 Berny optimization.
 Initialization pass.
                           ----------------------------
                           !    Initial Parameters    !
                           ! (Angstroms and Degrees)  !
 --------------------------                            --------------------------
 ! Name  Definition              Value          Derivative Info.                !
 --------------------------------------------------------------------------------
 ! R1    R(1,2)                  0.962          estimate D2E/DX2                !
 ! R2    R(1,3)                  0.962          estimate D2E/DX2                !
 ! A1    A(2,1,3)              105.0603         estimate D2E/DX2                !
 --------------------------------------------------------------------------------
 Trust Radius=3.00D-01 FncErr=1.00D-07 GrdErr=1.00D-06
 Number of steps in this run=  20 maximum allowed number of steps= 100.
 GradGradGradGradGradGradGradGradGradGradGradGradGradGradGradGradGradGrad

 Leave Link  103 at Wed Oct 17 12:53:28 2012, MaxMem=  268435456 cpu:       0.0
 (Enter /home/est863/Gaussian/g09/l202.exe)
                          Input orientation:                          
 ---------------------------------------------------------------------
 Center     Atomic      Atomic             Coordinates (Angstroms)
 Number     Number       Type             X           Y           Z
 ---------------------------------------------------------------------
      1          8           0        0.000000    0.000000    0.117041
      2          1           0        0.000000    0.763487   -0.468165
      3          1           0        0.000000   -0.763487   -0.468165
 ---------------------------------------------------------------------
                    Distance matrix (angstroms):
                    1          2          3
     1  O    0.000000
     2  H    0.961966   0.000000
     3  H    0.961966   1.526974   0.000000
 Stoichiometry    H2O
 Framework group  C2V[C2(O),SGV(H2)]
 Deg. of freedom     2
 Full point group                 C2V     NOp   4
 Largest Abelian subgroup         C2V     NOp   4
 Largest concise Abelian subgroup C2      NOp   2
                         Standard orientation:                         
 ---------------------------------------------------------------------
 Center     Atomic      Atomic             Coordinates (Angstroms)
 Number     Number       Type             X           Y           Z
 ---------------------------------------------------------------------
      1          8           0        0.000000    0.000000    0.117041
      2          1           0        0.000000    0.763487   -0.468165
      3          1           0        0.000000   -0.763487   -0.468165
 ---------------------------------------------------------------------
 Rotational constants (GHZ):    824.3846947    430.1290391    282.6527817
 Leave Link  202 at Wed Oct 17 12:53:28 2012, MaxMem=  268435456 cpu:       0.0
 (Enter /home/est863/Gaussian/g09/l301.exe)
 Standard basis: 6-31+G(d,p) (6D, 7F)
 Ernie: Thresh=  0.10000D-02 Tol=  0.10000D-05 Strict=F.
 There are    14 symmetry adapted basis functions of A1  symmetry.
 There are     2 symmetry adapted basis functions of A2  symmetry.
 There are     5 symmetry adapted basis functions of B1  symmetry.
 There are     8 symmetry adapted basis functions of B2  symmetry.
 Integral buffers will be    131072 words long.
 Raffenetti 2 integral format.
 Two-electron integral symmetry is turned on.
    29 basis functions,    46 primitive gaussians,    29 cartesian basis functions
     5 alpha electrons        5 beta electrons
       nuclear repulsion energy         9.1481486584 Hartrees.
 IExCor=  402 DFT=T Ex+Corr=B3LYP ExCW=0 ScaHFX=  0.200000
 ScaDFX=  0.800000  0.720000  1.000000  0.810000 ScalE2=  1.000000  1.000000
 IRadAn=      0 IRanWt=     -1 IRanGd=            0 ICorTp=0
 NAtoms=    3 NActive=    3 NUniq=    2 SFac= 1.69D+00 NAtFMM=   80 NAOKFM=F Big=F
 ------------------------------------------------------------------------------
 Polarizable Continuum Model (PCM)
 =================================
 Model                : PCM.
 Atomic radii         : UFF (Universal Force Field).
 Polarization charges : Total charges.
 Charge compensation  : None.
 Solution method      : Matrix inversion.
 Cavity type          : Scaled VdW (van der Waals Surface) (Alpha=1.100).
 Cavity algorithm     : GePol (No added spheres)
                        Default sphere list used, NSphG=    3.
                        Lebedev-Laikov grids with approx.  5.0 points / Ang**2.
                        Smoothing algorithm: Karplus/York (Gamma=1.0000).
                        Polarization charges: spherical gaussians, with
                                              point-specific exponents (IZeta= 3).
                        Self-potential: point-specific (ISelfS= 7).
                        Self-field    : sphere-specific E.n sum rule (ISelfD= 2).
 1st derivatives      : Analytical E(r).r(x)/FMM algorithm (CHGder, D1EAlg=3).
                        Cavity 1st derivative terms included.
 Solvent              : Water, Eps=  78.355300 Eps(inf)=   1.777849
 ------------------------------------------------------------------------------
 Spheres list:
 ISph  on   Nord    Re0     Alpha      Xe            Ye            Ze
    1   O      1    1.750   1.100      0.000000      0.000000      0.117041
    2   H      2    1.443   1.100      0.000000      0.763487     -0.468165
    3   H      3    1.443   1.100      0.000000     -0.763487     -0.468165
 ------------------------------------------------------------------------------
 GePol: Number of generator spheres                  =       3
 GePol: Total number of spheres                      =       3
 GePol: Number of exposed spheres                    =       3 (100.00%)
 GePol: Number of points                             =     392
 GePol: Average weight of points                     =       0.14
 GePol: Minimum weight of points                     =   0.32D-08
 GePol: Maximum weight of points                     =    0.20212
 GePol: Number of points with low weight             =      12
 GePol: Fraction of low-weight points (<1% of avg)   =       3.06%
 GePol: Cavity surface area                          =     55.611 Ang**2
 GePol: Cavity volume                                =     37.444 Ang**3
 Leave Link  301 at Wed Oct 17 12:53:28 2012, MaxMem=  268435456 cpu:       0.1
 (Enter /home/est863/Gaussian/g09/l302.exe)
 NPDir=0 NMtPBC=     1 NCelOv=     1 NCel=       1 NClECP=     1 NCelD=      1
         NCelK=      1 NCelE2=     1 NClLst=     1 CellRange=     0.0.
 One-electron integrals computed using PRISM.
 One-electron integral symmetry used in STVInt
 NBasis=    29 RedAO= T  NBF=    14     2     5     8
 NBsUse=    29 1.00D-06 NBFU=    14     2     5     8
 Precomputing XC quadrature grid using
 IXCGrd= 2 IRadAn=           0 IRanWt=          -1 IRanGd=           0 AccXCQ= 1.00D-10.
 NRdTot=     187 NPtTot=       23652 NUsed=       25013 NTot=       25045
 NSgBfM=    29    29    29    29    29 NAtAll=     3     3.
 Leave Link  302 at Wed Oct 17 12:53:28 2012, MaxMem=  268435456 cpu:       0.2
 (Enter /home/est863/Gaussian/g09/l303.exe)
 DipDrv:  MaxL=1.
 Leave Link  303 at Wed Oct 17 12:53:28 2012, MaxMem=  268435456 cpu:       0.0
 (Enter /home/est863/Gaussian/g09/l401.exe)
 Harris functional with IExCor=  402 diagonalized for initial guess.
 ExpMin= 8.45D-02 ExpMax= 5.48D+03 ExpMxC= 8.25D+02 IAcc=2 IRadAn=         0 AccDes= 0.00D+00
 HarFok:  IExCor=  402 AccDes= 0.00D+00 IRadAn=         0 IDoV= 1
 ScaDFX=  1.000000  1.000000  1.000000  1.000000
 FoFCou: FMM=F IPFlag=           0 FMFlag=      100000 FMFlg1=           0
         NFxFlg=           0 DoJE=T BraDBF=F KetDBF=T FulRan=T
         Omega=  0.000000  0.000000  1.000000  0.000000  0.000000 ICntrl=     500 IOpCl=  0
         NMat0=    1 NMatS0=    1 NMatT0=    0 NMatD0=    1 NMtDS0=    0 NMtDT0=    0
         I1Cent=           4 NGrid=           0.
 Petite list used in FoFCou.
 Harris En= -76.4704698454455    
 Initial guess orbital symmetries:
       Occupied  (A1) (A1) (B2) (A1) (B1)
       Virtual   (A1) (B2) (A1) (B1) (B2) (A1) (B2) (A1) (B1) (B2)
                 (A1) (A1) (A2) (A1) (B1) (A1) (B2) (B2) (A2) (B1)
                 (A1) (A1) (B2) (A1)
 The electronic state of the initial guess is 1-A1.
 Leave Link  401 at Wed Oct 17 12:53:28 2012, MaxMem=  268435456 cpu:       0.2
 (Enter /home/est863/Gaussian/g09/l502.exe)
 Closed shell SCF:
 Requested convergence on RMS density matrix=1.00D-08 within 128 cycles.
 Requested convergence on MAX density matrix=1.00D-06.
 Requested convergence on             energy=1.00D-06.
 No special actions if energy rises.
 Using DIIS extrapolation, IDIIS=  1040.
 Integral symmetry usage will be decided dynamically.
        24973 words used for storage of precomputed grid.
 Keep R1 ints in memory in canonical form, NReq=3186659.
 IEnd=       46098 IEndB=       46098 NGot=   268435456 MDV=   268312011
 LenX=   268312011 LenY=   268310729
 Symmetry not used in FoFDir.
 MinBra= 0 MaxBra= 2 Meth= 1.
 IRaf=       0 NMat=   1 IRICut=       1 DoRegI=T DoRafI=F ISym2E= 0 JSym2E=0.

 Cycle   1  Pass 1  IDiag  1:
 E= -76.3723589520186    
 DIIS: error= 6.44D-02 at cycle   1 NSaved=   1.
 NSaved= 1 IEnMin= 1 EnMin= -76.3723589520186     IErMin= 1 ErrMin= 6.44D-02
 ErrMax= 6.44D-02 EMaxC= 1.00D-01 BMatC= 9.26D-02 BMatP= 9.26D-02
 IDIUse=3 WtCom= 3.56D-01 WtEn= 6.44D-01
 Coeff-Com:  0.100D+01
 Coeff-En:   0.100D+01
 Coeff:      0.100D+01
 Gap=     0.223 Goal=   None    Shift=    0.000
 GapD=    0.223 DampG=1.000 DampE=0.500 DampFc=0.5000 IDamp=-1.
 Damping current iteration by 5.00D-01
 RMSDP=1.54D-02 MaxDP=1.82D-01              OVMax= 2.24D-01

 Cycle   2  Pass 1  IDiag  1:
 E= -76.3854647358772     Delta-E=       -0.013105783859 Rises=F Damp=T
 DIIS: error= 2.42D-02 at cycle   2 NSaved=   2.
 NSaved= 2 IEnMin= 2 EnMin= -76.3854647358772     IErMin= 2 ErrMin= 2.42D-02
 ErrMax= 2.42D-02 EMaxC= 1.00D-01 BMatC= 1.18D-02 BMatP= 9.26D-02
 IDIUse=3 WtCom= 7.58D-01 WtEn= 2.42D-01
 Coeff-Com:  0.255D+00 0.745D+00
 Coeff-En:   0.416D+00 0.584D+00
 Coeff:      0.294D+00 0.706D+00
 Gap=     0.346 Goal=   None    Shift=    0.000
 RMSDP=1.95D-03 MaxDP=1.77D-02 DE=-1.31D-02 OVMax= 1.41D-01

 Cycle   3  Pass 1  IDiag  1:
 E= -76.4420207305622     Delta-E=       -0.056555994685 Rises=F Damp=F
 DIIS: error= 3.81D-03 at cycle   3 NSaved=   3.
 NSaved= 3 IEnMin= 3 EnMin= -76.4420207305622     IErMin= 3 ErrMin= 3.81D-03
 ErrMax= 3.81D-03 EMaxC= 1.00D-01 BMatC= 3.60D-04 BMatP= 1.18D-02
 IDIUse=3 WtCom= 9.62D-01 WtEn= 3.81D-02
 Coeff-Com:  0.475D-01-0.376D-01 0.990D+00
 Coeff-En:   0.000D+00 0.000D+00 0.100D+01
 Coeff:      0.456D-01-0.362D-01 0.991D+00
 Gap=     0.360 Goal=   None    Shift=    0.000
 RMSDP=2.96D-04 MaxDP=3.76D-03 DE=-5.66D-02 OVMax= 3.77D-03

 Cycle   4  Pass 1  IDiag  1:
 E= -76.4422533832193     Delta-E=       -0.000232652657 Rises=F Damp=F
 DIIS: error= 3.38D-04 at cycle   4 NSaved=   4.
 NSaved= 4 IEnMin= 4 EnMin= -76.4422533832193     IErMin= 4 ErrMin= 3.38D-04
 ErrMax= 3.38D-04 EMaxC= 1.00D-01 BMatC= 3.32D-06 BMatP= 3.60D-04
 IDIUse=3 WtCom= 9.97D-01 WtEn= 3.38D-03
 Coeff-Com:  0.876D-02-0.205D-01 0.202D+00 0.810D+00
 Coeff-En:   0.000D+00 0.000D+00 0.000D+00 0.100D+01
 Coeff:      0.873D-02-0.205D-01 0.201D+00 0.810D+00
 Gap=     0.361 Goal=   None    Shift=    0.000
 RMSDP=2.53D-05 MaxDP=2.47D-04 DE=-2.33D-04 OVMax= 3.94D-04

 Cycle   5  Pass 1  IDiag  1:
 E= -76.4422557039533     Delta-E=       -0.000002320734 Rises=F Damp=F
 DIIS: error= 1.28D-04 at cycle   5 NSaved=   5.
 NSaved= 5 IEnMin= 5 EnMin= -76.4422557039533     IErMin= 5 ErrMin= 1.28D-04
 ErrMax= 1.28D-04 EMaxC= 1.00D-01 BMatC= 3.23D-07 BMatP= 3.32D-06
 IDIUse=3 WtCom= 9.99D-01 WtEn= 1.28D-03
 Coeff-Com:  0.208D-02-0.289D-02 0.173D-01 0.747D-01 0.909D+00
 Coeff-En:   0.000D+00 0.000D+00 0.000D+00 0.000D+00 0.100D+01
 Coeff:      0.208D-02-0.289D-02 0.173D-01 0.746D-01 0.909D+00
 Gap=     0.361 Goal=   None    Shift=    0.000
 RMSDP=1.03D-05 MaxDP=1.15D-04 DE=-2.32D-06 OVMax= 1.42D-04

 Cycle   6  Pass 1  IDiag  1:
 E= -76.4422559484561     Delta-E=       -0.000000244503 Rises=F Damp=F
 DIIS: error= 1.16D-05 at cycle   6 NSaved=   6.
 NSaved= 6 IEnMin= 6 EnMin= -76.4422559484561     IErMin= 6 ErrMin= 1.16D-05
 ErrMax= 1.16D-05 EMaxC= 1.00D-01 BMatC= 2.69D-09 BMatP= 3.23D-07
 IDIUse=1 WtCom= 1.00D+00 WtEn= 0.00D+00
 Coeff-Com:  0.330D-04-0.527D-04-0.102D-04-0.465D-02-0.587D-01 0.106D+01
 Coeff:      0.330D-04-0.527D-04-0.102D-04-0.465D-02-0.587D-01 0.106D+01
 Gap=     0.361 Goal=   None    Shift=    0.000
 RMSDP=9.58D-07 MaxDP=1.16D-05 DE=-2.45D-07 OVMax= 1.36D-05

 Cycle   7  Pass 1  IDiag  1:
 E= -76.4422559504683     Delta-E=       -0.000000002012 Rises=F Damp=F
 DIIS: error= 2.63D-07 at cycle   7 NSaved=   7.
 NSaved= 7 IEnMin= 7 EnMin= -76.4422559504683     IErMin= 7 ErrMin= 2.63D-07
 ErrMax= 2.63D-07 EMaxC= 1.00D-01 BMatC= 1.48D-12 BMatP= 2.69D-09
 IDIUse=1 WtCom= 1.00D+00 WtEn= 0.00D+00
 Coeff-Com: -0.154D-05 0.138D-05-0.178D-05 0.719D-05-0.530D-03-0.295D-01
 Coeff-Com:  0.103D+01
 Coeff:     -0.154D-05 0.138D-05-0.178D-05 0.719D-05-0.530D-03-0.295D-01
 Coeff:      0.103D+01
 Gap=     0.361 Goal=   None    Shift=    0.000
 RMSDP=2.23D-08 MaxDP=2.49D-07 DE=-2.01D-09 OVMax= 3.25D-07

 Cycle   8  Pass 1  IDiag  1:
 E= -76.4422559504694     Delta-E=       -0.000000000001 Rises=F Damp=F
 DIIS: error= 5.85D-09 at cycle   8 NSaved=   8.
 NSaved= 8 IEnMin= 8 EnMin= -76.4422559504694     IErMin= 8 ErrMin= 5.85D-09
 ErrMax= 5.85D-09 EMaxC= 1.00D-01 BMatC= 4.16D-16 BMatP= 1.48D-12
 IDIUse=1 WtCom= 1.00D+00 WtEn= 0.00D+00
 Coeff-Com:  0.222D-06-0.185D-06 0.189D-05 0.308D-04 0.403D-03-0.320D-02
 Coeff-Com: -0.564D-01 0.106D+01
 Coeff:      0.222D-06-0.185D-06 0.189D-05 0.308D-04 0.403D-03-0.320D-02
 Coeff:     -0.564D-01 0.106D+01
 Gap=     0.361 Goal=   None    Shift=    0.000
 RMSDP=1.02D-09 MaxDP=9.53D-09 DE=-1.15D-12 OVMax= 1.26D-08

 Error on total polarization charges =  0.00725
 SCF Done:  E(RB3LYP) =  -76.4422559505     A.U. after    8 cycles
             Convg  =    0.1015D-08             -V/T =  2.0094
 KE= 7.572782121030D+01 PE=-1.986063149016D+02 EE= 3.728808908251D+01
 Leave Link  502 at Wed Oct 17 12:53:29 2012, MaxMem=  268435456 cpu:       1.6
 (Enter /home/est863/Gaussian/g09/l601.exe)
 Copying SCF densities to generalized density rwf, IOpCl= 0 IROHF=0.

 **********************************************************************

            Population analysis using the SCF density.

 **********************************************************************

 Orbital symmetries:
       Occupied  (A1) (A1) (B2) (A1) (B1)
       Virtual   (A1) (B2) (A1) (B1) (B2) (A1) (B2) (A1) (B2) (B1)
                 (A1) (A1) (A2) (A1) (B1) (A1) (B2) (B2) (A2) (B1)
                 (A1) (A1) (B2) (A1)
 The electronic state is 1-A1.
 Alpha  occ. eigenvalues --  -19.17118  -1.02435  -0.54139  -0.40174  -0.32645
 Alpha virt. eigenvalues --    0.03442   0.12067   0.13933   0.14633   0.20712
 Alpha virt. eigenvalues --    0.24964   0.91035   1.00194   1.08092   1.10652
 Alpha virt. eigenvalues --    1.12620   1.22439   1.50468   1.52805   1.62400
 Alpha virt. eigenvalues --    2.23438   2.25566   2.51032   2.63439   2.65794
 Alpha virt. eigenvalues --    3.03240   3.33092   3.51795   3.91678
          Condensed to atoms (all electrons):
              1          2          3
     1  O    8.202751   0.283319   0.283319
     2  H    0.283319   0.351014  -0.019027
     3  H    0.283319  -0.019027   0.351014
 Mulliken atomic charges:
              1
     1  O   -0.769389
     2  H    0.384694
     3  H    0.384694
 Sum of Mulliken atomic charges =   0.00000
 Mulliken charges with hydrogens summed into heavy atoms:
              1
     1  O    0.000000
 Sum of Mulliken charges with hydrogens summed into heavy atoms =   0.00000
 Electronic spatial extent (au):  <R**2>=             20.0684
 Charge=              0.0000 electrons
 Dipole moment (field-independent basis, Debye):
    X=              0.0000    Y=              0.0000    Z=             -2.4561  Tot=              2.4561
 Quadrupole moment (field-independent basis, Debye-Ang):
   XX=             -7.9333   YY=             -4.3150   ZZ=             -6.5128
   XY=              0.0000   XZ=              0.0000   YZ=              0.0000
 Traceless Quadrupole moment (field-independent basis, Debye-Ang):
   XX=             -1.6796   YY=              1.9387   ZZ=             -0.2591
   XY=              0.0000   XZ=              0.0000   YZ=              0.0000
 Octapole moment (field-independent basis, Debye-Ang**2):
  XXX=              0.0000  YYY=              0.0000  ZZZ=             -1.9666  XYY=              0.0000
  XXY=              0.0000  XXZ=             -0.5845  XZZ=              0.0000  YZZ=              0.0000
  YYZ=             -1.5868  XYZ=              0.0000
 Hexadecapole moment (field-independent basis, Debye-Ang**3):
 XXXX=             -8.1364 YYYY=             -6.2804 ZZZZ=             -8.1664 XXXY=              0.0000
 XXXZ=              0.0000 YYYX=              0.0000 YYYZ=              0.0000 ZZZX=              0.0000
 ZZZY=              0.0000 XXYY=             -2.6968 XXZZ=             -2.7731 YYZZ=             -2.0638
 XXYZ=              0.0000 YYXZ=              0.0000 ZZXY=              0.0000
 N-N= 9.148148658354D+00 E-N=-1.986063149521D+02  KE= 7.572782121030D+01
 Symmetry A1   KE= 6.764411862588D+01
 Symmetry A2   KE= 1.297919922556D-36
 Symmetry B1   KE= 4.432751228770D+00
 Symmetry B2   KE= 3.650951355653D+00
 No NMR shielding tensors so no spin-rotation constants.
 Leave Link  601 at Wed Oct 17 12:53:29 2012, MaxMem=  268435456 cpu:       0.2
 (Enter /home/est863/Gaussian/g09/l701.exe)
 Compute integral first derivatives.
 ... and contract with generalized density number  0.
 D1PCM: PCM CHGder 1st derivatives, ID1Alg=3 FixD1E=F DoIter=F DoCFld=F I1PDM=0.
 GePol: Maximum number of non-zero 1st derivatives   =     266
 Leave Link  701 at Wed Oct 17 12:53:29 2012, MaxMem=  268435456 cpu:       0.6
 (Enter /home/est863/Gaussian/g09/l702.exe)
 L702 exits ... SP integral derivatives will be done elsewhere.
 Leave Link  702 at Wed Oct 17 12:53:29 2012, MaxMem=  268435456 cpu:       0.0
 (Enter /home/est863/Gaussian/g09/l703.exe)
 Compute integral first derivatives, UseDBF=F ICtDFT=           0.
 Integral derivatives from FoFDir, PRISM(SPDF).
 Calling FoFJK, ICntrl=      2127 FMM=F ISym2X=1 I1Cent= 0 IOpClX= 0 NMat=1 NMatS=1 NMatT=0.
 FoFCou: FMM=F IPFlag=           0 FMFlag=      100000 FMFlg1=         800
         NFxFlg=           0 DoJE=F BraDBF=F KetDBF=F FulRan=T
         Omega=  0.000000  0.000000  1.000000  0.000000  0.000000 ICntrl=    2127 IOpCl=  0
         NMat0=    1 NMatS0=    1 NMatT0=    0 NMatD0=    1 NMtDS0=    0 NMtDT0=    0
         I1Cent=           0 NGrid=           0.
 Petite list used in FoFCou.
 Leave Link  703 at Wed Oct 17 12:53:29 2012, MaxMem=  268435456 cpu:       0.3
 (Enter /home/est863/Gaussian/g09/l716.exe)
 Dipole        =-6.01257456D-17 0.00000000D+00-9.66298990D-01
 ***** Axes restored to original set *****
 -------------------------------------------------------------------
 Center     Atomic                   Forces (Hartrees/Bohr)
 Number     Number              X              Y              Z
 -------------------------------------------------------------------
      1        8           0.000000000    0.000000000    0.005694872
      2        1           0.000000000    0.003928614   -0.002847436
      3        1           0.000000000   -0.003928614   -0.002847436
 -------------------------------------------------------------------
 Cartesian Forces:  Max     0.005694872 RMS     0.002972380
 Leave Link  716 at Wed Oct 17 12:53:30 2012, MaxMem=  268435456 cpu:       0.0
 (Enter /home/est863/Gaussian/g09/l103.exe)

 GradGradGradGradGradGradGradGradGradGradGradGradGradGradGradGradGradGrad
 Berny optimization.
 Internal  Forces:  Max     0.004850258 RMS     0.003962569
 Search for a local minimum.
 Step number   1 out of a maximum of   20
 All quantities printed in internal units (Hartrees-Bohrs-Radians)
 RMS Force = .39626D-02 SwitMx=.10000D-02 MixMth= 1
 Mixed Optimization -- RFO/linear search
 Second derivative matrix not updated -- first step.
 The second derivative matrix:
                          R1        R2        A1
           R1           0.55053
           R2           0.00000   0.55053
           A1           0.00000   0.00000   0.16000
     Eigenvalues ---    0.16000   0.55053   0.55053
 RFO step:  Lambda=-8.57991813D-05 EMin= 1.60000000D-01
 Linear search not attempted -- first point.
 Iteration  1 RMS(Cart)=  0.00668856 RMS(Int)=  0.00000413
 Iteration  2 RMS(Cart)=  0.00000388 RMS(Int)=  0.00000000
 Iteration  3 RMS(Cart)=  0.00000000 RMS(Int)=  0.00000000
 ClnCor:  largest displacement from symmetrization is 4.43D-16 for atom     1.
 Variable       Old X    -DE/DX   Delta X   Delta X   Delta X     New X
                                 (Linear)    (Quad)   (Total)
    R1        1.81785   0.00485   0.00000   0.00881   0.00881   1.82666
    R2        1.81785   0.00485   0.00000   0.00881   0.00881   1.82666
    A1        1.83365   0.00024   0.00000   0.00148   0.00148   1.83512
         Item               Value     Threshold  Converged?
 Maximum Force            0.004850     0.000450     NO 
 RMS     Force            0.003963     0.000300     NO 
 Maximum Displacement     0.007811     0.001800     NO 
 RMS     Displacement     0.006691     0.001200     NO 
 Predicted change in Energy=-4.290634D-05
 GradGradGradGradGradGradGradGradGradGradGradGradGradGradGradGradGradGrad

 Leave Link  103 at Wed Oct 17 12:53:30 2012, MaxMem=  268435456 cpu:       0.0
 (Enter /home/est863/Gaussian/g09/l202.exe)
                          Input orientation:                          
 ---------------------------------------------------------------------
 Center     Atomic      Atomic             Coordinates (Angstroms)
 Number     Number       Type             X           Y           Z
 ---------------------------------------------------------------------
      1          8           0        0.000000    0.000000    0.118554
      2          1           0        0.000000    0.767621   -0.468921
      3          1           0        0.000000   -0.767621   -0.468921
 ---------------------------------------------------------------------
                    Distance matrix (angstroms):
                    1          2          3
     1  O    0.000000
     2  H    0.966627   0.000000
     3  H    0.966627   1.535241   0.000000
 Stoichiometry    H2O
 Framework group  C2V[C2(O),SGV(H2)]
 Deg. of freedom     2
 Full point group                 C2V     NOp   4
 Largest Abelian subgroup         C2V     NOp   4
 Largest concise Abelian subgroup C2      NOp   2
                         Standard orientation:                         
 ---------------------------------------------------------------------
 Center     Atomic      Atomic             Coordinates (Angstroms)
 Number     Number       Type             X           Y           Z
 ---------------------------------------------------------------------
      1          8           0        0.000000    0.000000    0.117495
      2          1           0        0.000000    0.767621   -0.469980
      3          1           0        0.000000   -0.767621   -0.469980
 ---------------------------------------------------------------------
 Rotational constants (GHZ):    818.0282036    425.5091406    279.9099516
 Leave Link  202 at Wed Oct 17 12:53:30 2012, MaxMem=  268435456 cpu:       0.0
 (Enter /home/est863/Gaussian/g09/l301.exe)
 Standard basis: 6-31+G(d,p) (6D, 7F)
 Ernie: Thresh=  0.10000D-02 Tol=  0.10000D-05 Strict=F.
 There are    14 symmetry adapted basis functions of A1  symmetry.
 There are     2 symmetry adapted basis functions of A2  symmetry.
 There are     5 symmetry adapted basis functions of B1  symmetry.
 There are     8 symmetry adapted basis functions of B2  symmetry.
 Integral buffers will be    131072 words long.
 Raffenetti 2 integral format.
 Two-electron integral symmetry is turned on.
    29 basis functions,    46 primitive gaussians,    29 cartesian basis functions
     5 alpha electrons        5 beta electrons
       nuclear repulsion energy         9.1038379609 Hartrees.
 IExCor=  402 DFT=T Ex+Corr=B3LYP ExCW=0 ScaHFX=  0.200000
 ScaDFX=  0.800000  0.720000  1.000000  0.810000 ScalE2=  1.000000  1.000000
 IRadAn=      0 IRanWt=     -1 IRanGd=            0 ICorTp=0
 NAtoms=    3 NActive=    3 NUniq=    2 SFac= 1.69D+00 NAtFMM=   80 NAOKFM=F Big=F
 ------------------------------------------------------------------------------
 Polarizable Continuum Model (PCM)
 =================================
 Model                : PCM.
 Atomic radii         : UFF (Universal Force Field).
 Polarization charges : Total charges.
 Charge compensation  : None.
 Solution method      : Matrix inversion.
 Cavity type          : Scaled VdW (van der Waals Surface) (Alpha=1.100).
 Cavity algorithm     : GePol (No added spheres)
                        Default sphere list used, NSphG=    3.
                        Lebedev-Laikov grids with approx.  5.0 points / Ang**2.
                        Smoothing algorithm: Karplus/York (Gamma=1.0000).
                        Polarization charges: spherical gaussians, with
                                              point-specific exponents (IZeta= 3).
                        Self-potential: point-specific (ISelfS= 7).
                        Self-field    : sphere-specific E.n sum rule (ISelfD= 2).
 1st derivatives      : Analytical E(r).r(x)/FMM algorithm (CHGder, D1EAlg=3).
                        Cavity 1st derivative terms included.
 Solvent              : Water, Eps=  78.355300 Eps(inf)=   1.777849
 ------------------------------------------------------------------------------
 Spheres list:
 ISph  on   Nord    Re0     Alpha      Xe            Ye            Ze
    1   O      1    1.750   1.100      0.000000      0.000000      0.117495
    2   H      2    1.443   1.100      0.000000      0.767621     -0.469980
    3   H      3    1.443   1.100      0.000000     -0.767621     -0.469980
 ------------------------------------------------------------------------------
 GePol: Number of generator spheres                  =       3
 GePol: Total number of spheres                      =       3
 GePol: Number of exposed spheres                    =       3 (100.00%)
 GePol: Number of points                             =     392
 GePol: Average weight of points                     =       0.14
 GePol: Minimum weight of points                     =   0.85D-06
 GePol: Maximum weight of points                     =    0.20212
 GePol: Number of points with low weight             =      12
 GePol: Fraction of low-weight points (<1% of avg)   =       3.06%
 GePol: Cavity surface area                          =     55.731 Ang**2
 GePol: Cavity volume                                =     37.535 Ang**3
 Leave Link  301 at Wed Oct 17 12:53:30 2012, MaxMem=  268435456 cpu:       0.1
 (Enter /home/est863/Gaussian/g09/l302.exe)
 NPDir=0 NMtPBC=     1 NCelOv=     1 NCel=       1 NClECP=     1 NCelD=      1
         NCelK=      1 NCelE2=     1 NClLst=     1 CellRange=     0.0.
 One-electron integrals computed using PRISM.
 One-electron integral symmetry used in STVInt
 NBasis=    29 RedAO= T  NBF=    14     2     5     8
 NBsUse=    29 1.00D-06 NBFU=    14     2     5     8
 Precomputing XC quadrature grid using
 IXCGrd= 2 IRadAn=           0 IRanWt=          -1 IRanGd=           0 AccXCQ= 1.00D-10.
 NRdTot=     187 NPtTot=       23652 NUsed=       25013 NTot=       25045
 NSgBfM=    29    29    29    29    29 NAtAll=     3     3.
 Leave Link  302 at Wed Oct 17 12:53:30 2012, MaxMem=  268435456 cpu:       0.2
 (Enter /home/est863/Gaussian/g09/l303.exe)
 DipDrv:  MaxL=1.
 Leave Link  303 at Wed Oct 17 12:53:30 2012, MaxMem=  268435456 cpu:       0.0
 (Enter /home/est863/Gaussian/g09/l401.exe)
 Initial guess read from the read-write file.
 B after Tr=     0.000000    0.000000    0.000000
         Rot=    1.000000    0.000000    0.000000    0.000000 Ang=   0.00 deg.
 Guess basis will be translated and rotated to current coordinates.
 Initial guess orbital symmetries:
       Occupied  (A1) (A1) (B2) (A1) (B1)
       Virtual   (A1) (B2) (A1) (B1) (B2) (A1) (B2) (A1) (B2) (B1)
                 (A1) (A1) (A2) (A1) (B1) (A1) (B2) (B2) (A2) (B1)
                 (A1) (A1) (B2) (A1)
 The electronic state of the initial guess is 1-A1.
 Leave Link  401 at Wed Oct 17 12:53:30 2012, MaxMem=  268435456 cpu:       0.1
 (Enter /home/est863/Gaussian/g09/l502.exe)
 Closed shell SCF:
 Requested convergence on RMS density matrix=1.00D-08 within 128 cycles.
 Requested convergence on MAX density matrix=1.00D-06.
 Requested convergence on             energy=1.00D-06.
 No special actions if energy rises.
 Using DIIS extrapolation, IDIIS=  1040.
 Integral symmetry usage will be decided dynamically.
        24973 words used for storage of precomputed grid.
 Keep R1 ints in memory in canonical form, NReq=3186659.
 IEnd=       46098 IEndB=       46098 NGot=   268435456 MDV=   268312011
 LenX=   268312011 LenY=   268310729
 Symmetry not used in FoFDir.
 MinBra= 0 MaxBra= 2 Meth= 1.
 IRaf=       0 NMat=   1 IRICut=       1 DoRegI=T DoRafI=F ISym2E= 0 JSym2E=0.

 Cycle   1  Pass 1  IDiag  1:
 E= -76.4422871868699    
 DIIS: error= 9.00D-04 at cycle   1 NSaved=   1.
 NSaved= 1 IEnMin= 1 EnMin= -76.4422871868699     IErMin= 1 ErrMin= 9.00D-04
 ErrMax= 9.00D-04 EMaxC= 1.00D-01 BMatC= 1.18D-05 BMatP= 1.18D-05
 IDIUse=3 WtCom= 9.91D-01 WtEn= 9.00D-03
 Coeff-Com:  0.100D+01
 Coeff-En:   0.100D+01
 Coeff:      0.100D+01
 Gap=     0.359 Goal=   None    Shift=    0.000
 RMSDP=1.36D-04 MaxDP=1.11D-03              OVMax= 1.74D-03

 Cycle   2  Pass 1  IDiag  1:
 E= -76.4422943548146     Delta-E=       -0.000007167945 Rises=F Damp=F
 DIIS: error= 5.69D-04 at cycle   2 NSaved=   2.
 NSaved= 2 IEnMin= 2 EnMin= -76.4422943548146     IErMin= 2 ErrMin= 5.69D-04
 ErrMax= 5.69D-04 EMaxC= 1.00D-01 BMatC= 6.40D-06 BMatP= 1.18D-05
 IDIUse=3 WtCom= 9.94D-01 WtEn= 5.69D-03
 Coeff-Com:  0.393D+00 0.607D+00
 Coeff-En:   0.209D-01 0.979D+00
 Coeff:      0.391D+00 0.609D+00
 Gap=     0.360 Goal=   None    Shift=    0.000
 RMSDP=6.99D-05 MaxDP=9.11D-04 DE=-7.17D-06 OVMax= 1.04D-03

 Cycle   3  Pass 1  IDiag  1:
 E= -76.4422974925842     Delta-E=       -0.000003137770 Rises=F Damp=F
 DIIS: error= 3.02D-04 at cycle   3 NSaved=   3.
 NSaved= 3 IEnMin= 3 EnMin= -76.4422974925842     IErMin= 3 ErrMin= 3.02D-04
 ErrMax= 3.02D-04 EMaxC= 1.00D-01 BMatC= 2.08D-06 BMatP= 6.40D-06
 IDIUse=3 WtCom= 9.97D-01 WtEn= 3.02D-03
 Coeff-Com:  0.146D-01 0.361D+00 0.624D+00
 Coeff-En:   0.000D+00 0.268D+00 0.732D+00
 Coeff:      0.145D-01 0.361D+00 0.625D+00
 Gap=     0.360 Goal=   None    Shift=    0.000
 RMSDP=2.67D-05 MaxDP=3.23D-04 DE=-3.14D-06 OVMax= 3.74D-04

 Cycle   4  Pass 1  IDiag  1:
 E= -76.4422989746388     Delta-E=       -0.000001482055 Rises=F Damp=F
 DIIS: error= 1.49D-05 at cycle   4 NSaved=   4.
 NSaved= 4 IEnMin= 4 EnMin= -76.4422989746388     IErMin= 4 ErrMin= 1.49D-05
 ErrMax= 1.49D-05 EMaxC= 1.00D-01 BMatC= 5.18D-09 BMatP= 2.08D-06
 IDIUse=1 WtCom= 1.00D+00 WtEn= 0.00D+00
 Coeff-Com: -0.553D-02 0.589D-01 0.127D+00 0.820D+00
 Coeff:     -0.553D-02 0.589D-01 0.127D+00 0.820D+00
 Gap=     0.360 Goal=   None    Shift=    0.000
 RMSDP=1.70D-06 MaxDP=1.33D-05 DE=-1.48D-06 OVMax= 2.51D-05

 Cycle   5  Pass 1  IDiag  1:
 E= -76.4422989789976     Delta-E=       -0.000000004359 Rises=F Damp=F
 DIIS: error= 8.09D-07 at cycle   5 NSaved=   5.
 NSaved= 5 IEnMin= 5 EnMin= -76.4422989789976     IErMin= 5 ErrMin= 8.09D-07
 ErrMax= 8.09D-07 EMaxC= 1.00D-01 BMatC= 2.56D-11 BMatP= 5.18D-09
 IDIUse=1 WtCom= 1.00D+00 WtEn= 0.00D+00
 Coeff-Com: -0.449D-03-0.425D-02-0.737D-02 0.240D-01 0.988D+00
 Coeff:     -0.449D-03-0.425D-02-0.737D-02 0.240D-01 0.988D+00
 Gap=     0.360 Goal=   None    Shift=    0.000
 RMSDP=2.95D-07 MaxDP=3.00D-06 DE=-4.36D-09 OVMax= 4.70D-06

 Cycle   6  Pass 1  IDiag  1:
 E= -76.4422989790354     Delta-E=       -0.000000000038 Rises=F Damp=F
 DIIS: error= 1.38D-07 at cycle   6 NSaved=   6.
 NSaved= 6 IEnMin= 6 EnMin= -76.4422989790354     IErMin= 6 ErrMin= 1.38D-07
 ErrMax= 1.38D-07 EMaxC= 1.00D-01 BMatC= 2.18D-13 BMatP= 2.56D-11
 IDIUse=1 WtCom= 1.00D+00 WtEn= 0.00D+00
 Coeff-Com:  0.531D-04-0.399D-03-0.565D-03-0.596D-02-0.411D-01 0.105D+01
 Coeff:      0.531D-04-0.399D-03-0.565D-03-0.596D-02-0.411D-01 0.105D+01
 Gap=     0.360 Goal=   None    Shift=    0.000
 RMSDP=3.39D-08 MaxDP=3.18D-07 DE=-3.78D-11 OVMax= 4.66D-07

 Cycle   7  Pass 1  IDiag  1:
 E= -76.4422989790358     Delta-E=        0.000000000000 Rises=F Damp=F
 DIIS: error= 5.47D-09 at cycle   7 NSaved=   7.
 NSaved= 7 IEnMin= 7 EnMin= -76.4422989790358     IErMin= 7 ErrMin= 5.47D-09
 ErrMax= 5.47D-09 EMaxC= 1.00D-01 BMatC= 5.38D-16 BMatP= 2.18D-13
 IDIUse=1 WtCom= 1.00D+00 WtEn= 0.00D+00
 Coeff-Com: -0.133D-05 0.316D-04 0.317D-04 0.563D-04-0.718D-03-0.529D-01
 Coeff-Com:  0.105D+01
 Coeff:     -0.133D-05 0.316D-04 0.317D-04 0.563D-04-0.718D-03-0.529D-01
 Coeff:      0.105D+01
 Gap=     0.360 Goal=   None    Shift=    0.000
 RMSDP=1.41D-09 MaxDP=1.48D-08 DE=-3.98D-13 OVMax= 2.52D-08

 Error on total polarization charges =  0.00729
 SCF Done:  E(RB3LYP) =  -76.4422989790     A.U. after    7 cycles
             Convg  =    0.1405D-08             -V/T =  2.0097
 KE= 7.571094242065D+01 PE=-1.985120812358D+02 EE= 3.725500187524D+01
 Leave Link  502 at Wed Oct 17 12:53:31 2012, MaxMem=  268435456 cpu:       1.5
 (Enter /home/est863/Gaussian/g09/l701.exe)
 Compute integral first derivatives.
 ... and contract with generalized density number  0.
 D1PCM: PCM CHGder 1st derivatives, ID1Alg=3 FixD1E=F DoIter=F DoCFld=F I1PDM=0.
 GePol: Maximum number of non-zero 1st derivatives   =     266
 Leave Link  701 at Wed Oct 17 12:53:31 2012, MaxMem=  268435456 cpu:       0.6
 (Enter /home/est863/Gaussian/g09/l702.exe)
 L702 exits ... SP integral derivatives will be done elsewhere.
 Leave Link  702 at Wed Oct 17 12:53:31 2012, MaxMem=  268435456 cpu:       0.0
 (Enter /home/est863/Gaussian/g09/l703.exe)
 Compute integral first derivatives, UseDBF=F ICtDFT=           0.
 Integral derivatives from FoFDir, PRISM(SPDF).
 Calling FoFJK, ICntrl=      2127 FMM=F ISym2X=1 I1Cent= 0 IOpClX= 0 NMat=1 NMatS=1 NMatT=0.
 FoFCou: FMM=F IPFlag=           0 FMFlag=      100000 FMFlg1=         800
         NFxFlg=           0 DoJE=F BraDBF=F KetDBF=F FulRan=T
         Omega=  0.000000  0.000000  1.000000  0.000000  0.000000 ICntrl=    2127 IOpCl=  0
         NMat0=    1 NMatS0=    1 NMatT0=    0 NMatD0=    1 NMtDS0=    0 NMtDT0=    0
         I1Cent=           0 NGrid=           0.
 Petite list used in FoFCou.
 Leave Link  703 at Wed Oct 17 12:53:31 2012, MaxMem=  268435456 cpu:       0.3
 (Enter /home/est863/Gaussian/g09/l716.exe)
 Dipole        =-6.06507627D-17 0.00000000D+00-9.67598145D-01
 ***** Axes restored to original set *****
 -------------------------------------------------------------------
 Center     Atomic                   Forces (Hartrees/Bohr)
 Number     Number              X              Y              Z
 -------------------------------------------------------------------
      1        8           0.000000000    0.000000000    0.000530269
      2        1           0.000000000   -0.000099424   -0.000265134
      3        1           0.000000000    0.000099424   -0.000265134
 -------------------------------------------------------------------
 Cartesian Forces:  Max     0.000530269 RMS     0.000221497
 Leave Link  716 at Wed Oct 17 12:53:31 2012, MaxMem=  268435456 cpu:       0.1
 (Enter /home/est863/Gaussian/g09/l103.exe)

 GradGradGradGradGradGradGradGradGradGradGradGradGradGradGradGradGradGrad
 Berny optimization.
 Using GEDIIS/GDIIS optimizer.
 Internal  Forces:  Max     0.000494980 RMS     0.000293549
 Search for a local minimum.
 Step number   2 out of a maximum of   20
 All quantities printed in internal units (Hartrees-Bohrs-Radians)
 RMS Force = .29355D-03 SwitMx=.10000D-02 MixMth= 2
 Mixed Optimization -- En-DIIS/RFO-DIIS
 Update second derivatives using D2CorX and points    1    2
 DE= -4.30D-05 DEPred=-4.29D-05 R= 1.00D+00
 SS=  1.41D+00  RLast= 1.25D-02 DXNew= 5.0454D-01 3.7634D-02
 Trust test= 1.00D+00 RLast= 1.25D-02 DXMaxT set to 3.00D-01
 The second derivative matrix:
                          R1        R2        A1
           R1           0.54359
           R2          -0.00694   0.54359
           A1           0.02763   0.02763   0.16564
 Use linear search instead of GDIIS.
     Eigenvalues ---    0.16156   0.54072   0.55053
 RFO step:  Lambda=-1.57600328D-06 EMin= 1.61564890D-01
 Quartic linear search produced a step of  0.00857.
 Iteration  1 RMS(Cart)=  0.00165876 RMS(Int)=  0.00000181
 Iteration  2 RMS(Cart)=  0.00000171 RMS(Int)=  0.00000000
 Iteration  3 RMS(Cart)=  0.00000000 RMS(Int)=  0.00000000
 ClnCor:  largest displacement from symmetrization is 1.36D-15 for atom     3.
 Variable       Old X    -DE/DX   Delta X   Delta X   Delta X     New X
                                 (Linear)    (Quad)   (Total)
    R1        1.82666   0.00008   0.00008   0.00024   0.00031   1.82697
    R2        1.82666   0.00008   0.00008   0.00024   0.00031   1.82697
    A1        1.83512  -0.00049   0.00001  -0.00310  -0.00309   1.83203
         Item               Value     Threshold  Converged?
 Maximum Force            0.000495     0.000450     NO 
 RMS     Force            0.000294     0.000300     YES
 Maximum Displacement     0.001622     0.001800     YES
 RMS     Displacement     0.001660     0.001200     NO 
 Predicted change in Energy=-7.910521D-07
 GradGradGradGradGradGradGradGradGradGradGradGradGradGradGradGradGradGrad

 Leave Link  103 at Wed Oct 17 12:53:31 2012, MaxMem=  268435456 cpu:       0.0
 (Enter /home/est863/Gaussian/g09/l202.exe)
                          Input orientation:                          
 ---------------------------------------------------------------------
 Center     Atomic      Atomic             Coordinates (Angstroms)
 Number     Number       Type             X           Y           Z
 ---------------------------------------------------------------------
      1          8           0        0.000000    0.000000    0.119412
      2          1           0        0.000000    0.766843   -0.469350
      3          1           0        0.000000   -0.766843   -0.469350
 ---------------------------------------------------------------------
                    Distance matrix (angstroms):
                    1          2          3
     1  O    0.000000
     2  H    0.966793   0.000000
     3  H    0.966793   1.533686   0.000000
 Stoichiometry    H2O
 Framework group  C2V[C2(O),SGV(H2)]
 Deg. of freedom     2
 Full point group                 C2V     NOp   4
 Largest Abelian subgroup         C2V     NOp   4
 Largest concise Abelian subgroup C2      NOp   2
                         Standard orientation:                         
 ---------------------------------------------------------------------
 Center     Atomic      Atomic             Coordinates (Angstroms)
 Number     Number       Type             X           Y           Z
 ---------------------------------------------------------------------
      1          8           0        0.000000    0.000000    0.117752
      2          1           0        0.000000    0.766843   -0.471010
      3          1           0        0.000000   -0.766843   -0.471010
 ---------------------------------------------------------------------
 Rotational constants (GHZ):    814.4552204    426.3725499    279.8626509
 Leave Link  202 at Wed Oct 17 12:53:31 2012, MaxMem=  268435456 cpu:       0.0
 (Enter /home/est863/Gaussian/g09/l301.exe)
 Standard basis: 6-31+G(d,p) (6D, 7F)
 Ernie: Thresh=  0.10000D-02 Tol=  0.10000D-05 Strict=F.
 There are    14 symmetry adapted basis functions of A1  symmetry.
 There are     2 symmetry adapted basis functions of A2  symmetry.
 There are     5 symmetry adapted basis functions of B1  symmetry.
 There are     8 symmetry adapted basis functions of B2  symmetry.
 Integral buffers will be    131072 words long.
 Raffenetti 2 integral format.
 Two-electron integral symmetry is turned on.
    29 basis functions,    46 primitive gaussians,    29 cartesian basis functions
     5 alpha electrons        5 beta electrons
       nuclear repulsion energy         9.1026840379 Hartrees.
 IExCor=  402 DFT=T Ex+Corr=B3LYP ExCW=0 ScaHFX=  0.200000
 ScaDFX=  0.800000  0.720000  1.000000  0.810000 ScalE2=  1.000000  1.000000
 IRadAn=      0 IRanWt=     -1 IRanGd=            0 ICorTp=0
 NAtoms=    3 NActive=    3 NUniq=    2 SFac= 1.69D+00 NAtFMM=   80 NAOKFM=F Big=F
 ------------------------------------------------------------------------------
 Polarizable Continuum Model (PCM)
 =================================
 Model                : PCM.
 Atomic radii         : UFF (Universal Force Field).
 Polarization charges : Total charges.
 Charge compensation  : None.
 Solution method      : Matrix inversion.
 Cavity type          : Scaled VdW (van der Waals Surface) (Alpha=1.100).
 Cavity algorithm     : GePol (No added spheres)
                        Default sphere list used, NSphG=    3.
                        Lebedev-Laikov grids with approx.  5.0 points / Ang**2.
                        Smoothing algorithm: Karplus/York (Gamma=1.0000).
                        Polarization charges: spherical gaussians, with
                                              point-specific exponents (IZeta= 3).
                        Self-potential: point-specific (ISelfS= 7).
                        Self-field    : sphere-specific E.n sum rule (ISelfD= 2).
 1st derivatives      : Analytical E(r).r(x)/FMM algorithm (CHGder, D1EAlg=3).
                        Cavity 1st derivative terms included.
 Solvent              : Water, Eps=  78.355300 Eps(inf)=   1.777849
 ------------------------------------------------------------------------------
 Spheres list:
 ISph  on   Nord    Re0     Alpha      Xe            Ye            Ze
    1   O      1    1.750   1.100      0.000000      0.000000      0.117752
    2   H      2    1.443   1.100      0.000000      0.766843     -0.471010
    3   H      3    1.443   1.100      0.000000     -0.766843     -0.471010
 ------------------------------------------------------------------------------
 GePol: Number of generator spheres                  =       3
 GePol: Total number of spheres                      =       3
 GePol: Number of exposed spheres                    =       3 (100.00%)
 GePol: Number of points                             =     392
 GePol: Average weight of points                     =       0.14
 GePol: Minimum weight of points                     =   0.24D-05
 GePol: Maximum weight of points                     =    0.20212
 GePol: Number of points with low weight             =      12
 GePol: Fraction of low-weight points (<1% of avg)   =       3.06%
 GePol: Cavity surface area                          =     55.727 Ang**2
 GePol: Cavity volume                                =     37.534 Ang**3
 Leave Link  301 at Wed Oct 17 12:53:31 2012, MaxMem=  268435456 cpu:       0.1
 (Enter /home/est863/Gaussian/g09/l302.exe)
 NPDir=0 NMtPBC=     1 NCelOv=     1 NCel=       1 NClECP=     1 NCelD=      1
         NCelK=      1 NCelE2=     1 NClLst=     1 CellRange=     0.0.
 One-electron integrals computed using PRISM.
 One-electron integral symmetry used in STVInt
 NBasis=    29 RedAO= T  NBF=    14     2     5     8
 NBsUse=    29 1.00D-06 NBFU=    14     2     5     8
 Precomputing XC quadrature grid using
 IXCGrd= 2 IRadAn=           0 IRanWt=          -1 IRanGd=           0 AccXCQ= 1.00D-10.
 NRdTot=     187 NPtTot=       23652 NUsed=       25013 NTot=       25045
 NSgBfM=    29    29    29    29    29 NAtAll=     3     3.
 Leave Link  302 at Wed Oct 17 12:53:32 2012, MaxMem=  268435456 cpu:       0.6
 (Enter /home/est863/Gaussian/g09/l303.exe)
 DipDrv:  MaxL=1.
 Leave Link  303 at Wed Oct 17 12:53:32 2012, MaxMem=  268435456 cpu:       0.2
 (Enter /home/est863/Gaussian/g09/l401.exe)
 Initial guess read from the read-write file.
 B after Tr=     0.000000    0.000000    0.000000
         Rot=    1.000000    0.000000    0.000000    0.000000 Ang=   0.00 deg.
 Guess basis will be translated and rotated to current coordinates.
 Initial guess orbital symmetries:
       Occupied  (A1) (A1) (B2) (A1) (B1)
       Virtual   (A1) (B2) (A1) (B1) (B2) (A1) (B2) (A1) (B2) (B1)
                 (A1) (A1) (A2) (A1) (B1) (A1) (B2) (B2) (A2) (B1)
                 (A1) (A1) (B2) (A1)
 The electronic state of the initial guess is 1-A1.
 Leave Link  401 at Wed Oct 17 12:53:33 2012, MaxMem=  268435456 cpu:       0.2
 (Enter /home/est863/Gaussian/g09/l502.exe)
 Closed shell SCF:
 Requested convergence on RMS density matrix=1.00D-08 within 128 cycles.
 Requested convergence on MAX density matrix=1.00D-06.
 Requested convergence on             energy=1.00D-06.
 No special actions if energy rises.
 Using DIIS extrapolation, IDIIS=  1040.
 Integral symmetry usage will be decided dynamically.
        24973 words used for storage of precomputed grid.
 Keep R1 ints in memory in canonical form, NReq=3186659.
 IEnd=       46098 IEndB=       46098 NGot=   268435456 MDV=   268312011
 LenX=   268312011 LenY=   268310729
 Symmetry not used in FoFDir.
 MinBra= 0 MaxBra= 2 Meth= 1.
 IRaf=       0 NMat=   1 IRICut=       1 DoRegI=T DoRafI=F ISym2E= 0 JSym2E=0.

 Cycle   1  Pass 1  IDiag  1:
 E= -76.4422994645345    
 DIIS: error= 1.23D-04 at cycle   1 NSaved=   1.
 NSaved= 1 IEnMin= 1 EnMin= -76.4422994645345     IErMin= 1 ErrMin= 1.23D-04
 ErrMax= 1.23D-04 EMaxC= 1.00D-01 BMatC= 2.81D-07 BMatP= 2.81D-07
 IDIUse=3 WtCom= 9.99D-01 WtEn= 1.23D-03
 Coeff-Com:  0.100D+01
 Coeff-En:   0.100D+01
 Coeff:      0.100D+01
 Gap=     0.360 Goal=   None    Shift=    0.000
 RMSDP=3.01D-05 MaxDP=2.00D-04              OVMax= 3.15D-04

 Cycle   2  Pass 1  IDiag  1:
 E= -76.4422998152380     Delta-E=       -0.000000350704 Rises=F Damp=F
 DIIS: error= 2.06D-05 at cycle   2 NSaved=   2.
 NSaved= 2 IEnMin= 2 EnMin= -76.4422998152380     IErMin= 2 ErrMin= 2.06D-05
 ErrMax= 2.06D-05 EMaxC= 1.00D-01 BMatC= 9.65D-09 BMatP= 2.81D-07
 IDIUse=1 WtCom= 1.00D+00 WtEn= 0.00D+00
 Coeff-Com: -0.393D-03 0.100D+01
 Coeff:     -0.393D-03 0.100D+01
 Gap=     0.360 Goal=   None    Shift=    0.000
 RMSDP=4.63D-06 MaxDP=5.41D-05 DE=-3.51D-07 OVMax= 6.38D-05

 Cycle   3  Pass 1  IDiag  1:
 E= -76.4422998083733     Delta-E=        0.000000006865 Rises=F Damp=F
 DIIS: error= 3.14D-05 at cycle   3 NSaved=   3.
 NSaved= 3 IEnMin= 2 EnMin= -76.4422998152380     IErMin= 2 ErrMin= 2.06D-05
 ErrMax= 3.14D-05 EMaxC= 1.00D-01 BMatC= 2.10D-08 BMatP= 9.65D-09
 IDIUse=1 WtCom= 1.00D+00 WtEn= 0.00D+00
 Coeff-Com: -0.309D-01 0.619D+00 0.412D+00
 Coeff:     -0.309D-01 0.619D+00 0.412D+00
 Gap=     0.360 Goal=   None    Shift=    0.000
 RMSDP=2.67D-06 MaxDP=3.23D-05 DE= 6.86D-09 OVMax= 3.65D-05

 Cycle   4  Pass 1  IDiag  1:
 E= -76.4422998233226     Delta-E=       -0.000000014949 Rises=F Damp=F
 DIIS: error= 5.52D-07 at cycle   4 NSaved=   4.
 NSaved= 4 IEnMin= 4 EnMin= -76.4422998233226     IErMin= 4 ErrMin= 5.52D-07
 ErrMax= 5.52D-07 EMaxC= 1.00D-01 BMatC= 7.28D-12 BMatP= 9.65D-09
 IDIUse=1 WtCom= 1.00D+00 WtEn= 0.00D+00
 Coeff-Com: -0.387D-03-0.111D-01 0.936D-02 0.100D+01
 Coeff:     -0.387D-03-0.111D-01 0.936D-02 0.100D+01
 Gap=     0.360 Goal=   None    Shift=    0.000
 RMSDP=1.45D-07 MaxDP=1.14D-06 DE=-1.49D-08 OVMax= 1.75D-06

 Cycle   5  Pass 1  IDiag  1:
 E= -76.4422998233304     Delta-E=       -0.000000000008 Rises=F Damp=F
 DIIS: error= 7.26D-08 at cycle   5 NSaved=   5.
 NSaved= 5 IEnMin= 5 EnMin= -76.4422998233304     IErMin= 5 ErrMin= 7.26D-08
 ErrMax= 7.26D-08 EMaxC= 1.00D-01 BMatC= 1.28D-13 BMatP= 7.28D-12
 IDIUse=1 WtCom= 1.00D+00 WtEn= 0.00D+00
 Coeff-Com:  0.184D-03-0.819D-02-0.208D-02 0.166D+00 0.844D+00
 Coeff:      0.184D-03-0.819D-02-0.208D-02 0.166D+00 0.844D+00
 Gap=     0.360 Goal=   None    Shift=    0.000
 RMSDP=1.29D-08 MaxDP=1.26D-07 DE=-7.77D-12 OVMax= 1.46D-07

 Cycle   6  Pass 1  IDiag  1:
 E= -76.4422998233305     Delta-E=        0.000000000000 Rises=F Damp=F
 DIIS: error= 7.14D-09 at cycle   6 NSaved=   6.
 NSaved= 6 IEnMin= 6 EnMin= -76.4422998233305     IErMin= 6 ErrMin= 7.14D-09
 ErrMax= 7.14D-09 EMaxC= 1.00D-01 BMatC= 1.50D-15 BMatP= 1.28D-13
 IDIUse=1 WtCom= 1.00D+00 WtEn= 0.00D+00
 Coeff-Com:  0.222D-04-0.187D-03-0.190D-03-0.143D-01 0.490D-01 0.966D+00
 Coeff:      0.222D-04-0.187D-03-0.190D-03-0.143D-01 0.490D-01 0.966D+00
 Gap=     0.360 Goal=   None    Shift=    0.000
 RMSDP=2.20D-09 MaxDP=2.01D-08 DE=-1.28D-13 OVMax= 3.34D-08

 Error on total polarization charges =  0.00728
 SCF Done:  E(RB3LYP) =  -76.4422998233     A.U. after    6 cycles
             Convg  =    0.2195D-08             -V/T =  2.0097
 KE= 7.571072757145D+01 PE=-1.985095157444D+02 EE= 3.725380431174D+01
 Leave Link  502 at Wed Oct 17 12:53:33 2012, MaxMem=  268435456 cpu:       1.4
 (Enter /home/est863/Gaussian/g09/l701.exe)
 Compute integral first derivatives.
 ... and contract with generalized density number  0.
 D1PCM: PCM CHGder 1st derivatives, ID1Alg=3 FixD1E=F DoIter=F DoCFld=F I1PDM=0.
 GePol: Maximum number of non-zero 1st derivatives   =     266
 Leave Link  701 at Wed Oct 17 12:53:34 2012, MaxMem=  268435456 cpu:       0.5
 (Enter /home/est863/Gaussian/g09/l702.exe)
 L702 exits ... SP integral derivatives will be done elsewhere.
 Leave Link  702 at Wed Oct 17 12:53:34 2012, MaxMem=  268435456 cpu:       0.0
 (Enter /home/est863/Gaussian/g09/l703.exe)
 Compute integral first derivatives, UseDBF=F ICtDFT=           0.
 Integral derivatives from FoFDir, PRISM(SPDF).
 Calling FoFJK, ICntrl=      2127 FMM=F ISym2X=1 I1Cent= 0 IOpClX= 0 NMat=1 NMatS=1 NMatT=0.
 FoFCou: FMM=F IPFlag=           0 FMFlag=      100000 FMFlg1=         800
         NFxFlg=           0 DoJE=F BraDBF=F KetDBF=F FulRan=T
         Omega=  0.000000  0.000000  1.000000  0.000000  0.000000 ICntrl=    2127 IOpCl=  0
         NMat0=    1 NMatS0=    1 NMatT0=    0 NMatD0=    1 NMtDS0=    0 NMtDT0=    0
         I1Cent=           0 NGrid=           0.
 Petite list used in FoFCou.
 Leave Link  703 at Wed Oct 17 12:53:34 2012, MaxMem=  268435456 cpu:       0.3
 (Enter /home/est863/Gaussian/g09/l716.exe)
 Dipole        =-6.05759443D-17 0.00000000D+00-9.68985093D-01
 ***** Axes restored to original set *****
 -------------------------------------------------------------------
 Center     Atomic                   Forces (Hartrees/Bohr)
 Number     Number              X              Y              Z
 -------------------------------------------------------------------
      1        8           0.000000000    0.000000000    0.000034169
      2        1           0.000000000   -0.000007683   -0.000017084
      3        1           0.000000000    0.000007683   -0.000017084
 -------------------------------------------------------------------
 Cartesian Forces:  Max     0.000034169 RMS     0.000014412
 Leave Link  716 at Wed Oct 17 12:53:34 2012, MaxMem=  268435456 cpu:       0.0
 (Enter /home/est863/Gaussian/g09/l103.exe)

 GradGradGradGradGradGradGradGradGradGradGradGradGradGradGradGradGradGrad
 Berny optimization.
 Using GEDIIS/GDIIS optimizer.
 Internal  Forces:  Max     0.000033305 RMS     0.000019548
 Search for a local minimum.
 Step number   3 out of a maximum of   20
 All quantities printed in internal units (Hartrees-Bohrs-Radians)
 RMS Force = .19548D-04 SwitMx=.10000D-02 MixMth= 2
 Mixed Optimization -- En-DIIS/RFO-DIIS
 Swaping is turned off.
 Update second derivatives using D2CorX and points    1    2    3
 DE= -8.44D-07 DEPred=-7.91D-07 R= 1.07D+00
 Trust test= 1.07D+00 RLast= 3.12D-03 DXMaxT set to 3.00D-01
 The second derivative matrix:
                          R1        R2        A1
           R1           0.54382
           R2          -0.00671   0.54382
           A1           0.02929   0.02929   0.15524
     Eigenvalues ---    0.15080   0.54155   0.55053
 En-DIIS/RFO-DIIS IScMMF=        0 using points:     3    2
 RFO step:  Lambda= 0.00000000D+00.
 DIIS coeffs:      1.07158     -0.07158
 Iteration  1 RMS(Cart)=  0.00011994 RMS(Int)=  0.00000001
 Iteration  2 RMS(Cart)=  0.00000001 RMS(Int)=  0.00000000
 ClnCor:  largest displacement from symmetrization is 2.22D-16 for atom     3.
 Variable       Old X    -DE/DX   Delta X   Delta X   Delta X     New X
                                  (DIIS)     (GDIIS)  (Total)
    R1        1.82697   0.00000   0.00002   0.00000   0.00002   1.82699
    R2        1.82697   0.00000   0.00002   0.00000   0.00002   1.82699
    A1        1.83203  -0.00003  -0.00022   0.00000  -0.00022   1.83181
         Item               Value     Threshold  Converged?
 Maximum Force            0.000033     0.000450     YES
 RMS     Force            0.000020     0.000300     YES
 Maximum Displacement     0.000115     0.001800     YES
 RMS     Displacement     0.000120     0.001200     YES
 Predicted change in Energy=-3.786034D-09
 Optimization completed.
    -- Stationary point found.
                           ----------------------------
                           !   Optimized Parameters   !
                           ! (Angstroms and Degrees)  !
 --------------------------                            --------------------------
 ! Name  Definition              Value          Derivative Info.                !
 --------------------------------------------------------------------------------
 ! R1    R(1,2)                  0.9668         -DE/DX =    0.0                 !
 ! R2    R(1,3)                  0.9668         -DE/DX =    0.0                 !
 ! A1    A(2,1,3)              104.9677         -DE/DX =    0.0                 !
 --------------------------------------------------------------------------------
 GradGradGradGradGradGradGradGradGradGradGradGradGradGradGradGradGradGrad

 Largest change from initial coordinates is atom    2       0.004 Angstoms.
 Leave Link  103 at Wed Oct 17 12:53:34 2012, MaxMem=  268435456 cpu:       0.0
 (Enter /home/est863/Gaussian/g09/l202.exe)
                          Input orientation:                          
 ---------------------------------------------------------------------
 Center     Atomic      Atomic             Coordinates (Angstroms)
 Number     Number       Type             X           Y           Z
 ---------------------------------------------------------------------
      1          8           0        0.000000    0.000000    0.119412
      2          1           0        0.000000    0.766843   -0.469350
      3          1           0        0.000000   -0.766843   -0.469350
 ---------------------------------------------------------------------
                    Distance matrix (angstroms):
                    1          2          3
     1  O    0.000000
     2  H    0.966793   0.000000
     3  H    0.966793   1.533686   0.000000
 Stoichiometry    H2O
 Framework group  C2V[C2(O),SGV(H2)]
 Deg. of freedom     2
 Full point group                 C2V     NOp   4
 Largest Abelian subgroup         C2V     NOp   4
 Largest concise Abelian subgroup C2      NOp   2
                         Standard orientation:                         
 ---------------------------------------------------------------------
 Center     Atomic      Atomic             Coordinates (Angstroms)
 Number     Number       Type             X           Y           Z
 ---------------------------------------------------------------------
      1          8           0        0.000000    0.000000    0.117752
      2          1           0        0.000000    0.766843   -0.471010
      3          1           0        0.000000   -0.766843   -0.471010
 ---------------------------------------------------------------------
 Rotational constants (GHZ):    814.4552204    426.3725499    279.8626509
 Leave Link  202 at Wed Oct 17 12:53:34 2012, MaxMem=  268435456 cpu:       0.0
 (Enter /home/est863/Gaussian/g09/l601.exe)
 Copying SCF densities to generalized density rwf, IOpCl= 0 IROHF=0.

 **********************************************************************

            Population analysis using the SCF density.

 **********************************************************************

 Orbital symmetries:
       Occupied  (A1) (A1) (B2) (A1) (B1)
       Virtual   (A1) (B2) (A1) (B1) (B2) (A1) (B2) (A1) (B2) (B1)
                 (A1) (A1) (A2) (A1) (B1) (A1) (B2) (B2) (A2) (B1)
                 (A1) (A1) (B2) (A1)
 The electronic state is 1-A1.
 Alpha  occ. eigenvalues --  -19.17188  -1.02233  -0.53936  -0.40147  -0.32609
 Alpha virt. eigenvalues --    0.03373   0.12034   0.13929   0.14629   0.20501
 Alpha virt. eigenvalues --    0.24800   0.90703   0.99782   1.08285   1.10646
 Alpha virt. eigenvalues --    1.12658   1.22525   1.50451   1.52752   1.62362
 Alpha virt. eigenvalues --    2.22821   2.25124   2.49935   2.62838   2.65270
 Alpha virt. eigenvalues --    3.02256   3.32103   3.51272   3.91343
          Condensed to atoms (all electrons):
              1          2          3
     1  O    8.206441   0.281899   0.281899
     2  H    0.281899   0.351851  -0.018870
     3  H    0.281899  -0.018870   0.351851
 Mulliken atomic charges:
              1
     1  O   -0.770239
     2  H    0.385120
     3  H    0.385120
 Sum of Mulliken atomic charges =   0.00000
 Mulliken charges with hydrogens summed into heavy atoms:
              1
     1  O    0.000000
 Sum of Mulliken charges with hydrogens summed into heavy atoms =   0.00000
 Electronic spatial extent (au):  <R**2>=             20.1314
 Charge=              0.0000 electrons
 Dipole moment (field-independent basis, Debye):
    X=              0.0000    Y=              0.0000    Z=             -2.4629  Tot=              2.4629
 Quadrupole moment (field-independent basis, Debye-Ang):
   XX=             -7.9455   YY=             -4.3070   ZZ=             -6.5119
   XY=              0.0000   XZ=              0.0000   YZ=              0.0000
 Traceless Quadrupole moment (field-independent basis, Debye-Ang):
   XX=             -1.6907   YY=              1.9478   ZZ=             -0.2571
   XY=              0.0000   XZ=              0.0000   YZ=              0.0000
 Octapole moment (field-independent basis, Debye-Ang**2):
  XXX=              0.0000  YYY=              0.0000  ZZZ=             -1.9670  XYY=              0.0000
  XXY=              0.0000  XXZ=             -0.5826  XZZ=              0.0000  YZZ=              0.0000
  YYZ=             -1.6021  XYZ=              0.0000
 Hexadecapole moment (field-independent basis, Debye-Ang**3):
 XXXX=             -8.1575 YYYY=             -6.3126 ZZZZ=             -8.2005 XXXY=              0.0000
 XXXZ=              0.0000 YYYX=              0.0000 YYYZ=              0.0000 ZZZX=              0.0000
 ZZZY=              0.0000 XXYY=             -2.7107 XXZZ=             -2.7835 YYZZ=             -2.0671
 XXYZ=              0.0000 YYXZ=              0.0000 ZZXY=              0.0000
 N-N= 9.102684037902D+00 E-N=-1.985095158405D+02  KE= 7.571072757145D+01
 Symmetry A1   KE= 6.763732618868D+01
 Symmetry A2   KE= 1.510188635214D-36
 Symmetry B1   KE= 4.432592588995D+00
 Symmetry B2   KE= 3.640808793782D+00
 No NMR shielding tensors so no spin-rotation constants.
 Leave Link  601 at Wed Oct 17 12:53:34 2012, MaxMem=  268435456 cpu:       0.2
 (Enter /home/est863/Gaussian/g09/l9999.exe)
 1\1\GINC-LOCALHOST\FOpt\RB3LYP\6-31+G(d,p)\H2O1\EST863\17-Oct-2012\0\\
 #p rb3lyp/6-31+g(d,p) opt freq scrf=(iefpcm,solvent=water)\\Title Card
  Required\\0,1\O,0.,0.,0.1194119855\H,0.,0.7668429164,-0.4693504927\H,
 0.,-0.7668429164,-0.4693504927\\Version=EM64L-G09RevA.01\State=1-A1\HF
 =-76.4422998\RMSD=2.195e-09\RMSF=1.441e-05\Dipole=0.,0.,-0.9689851\Qua
 drupole=-1.2569793,1.4481595,-0.1911802,0.,0.,0.\PG=C02V [C2(O1),SGV(H
 2)]\\@


            THE IRISH PIG
 'TWAS AN EVENING IN NOVEMBER,
 AS I VERY WELL REMEMBER
 I WAS STROLLING DOWN THE STREET IN DRUNKEN PRIDE,
 BUT MY KNEES WERE ALL A'FLUTTER
 SO I LANDED IN THE GUTTER,
 AND A PIG CAME UP AND LAY DOWN BY MY SIDE.

 YES, I LAY THERE IN THE GUTTER
 THINKING THOUGHTS I COULD NOT UTTER
 WHEN A COLLEEN PASSING BY DID SOFTLY SAY,
 'YE CAN TELL A MAN THAT BOOZES
 BY THE COMPANY THAT HE CHOOSES.' -
 AT THAT, THE PIG GOT UP AND WALKED AWAY!
     -- THE ECONOMIST, AUGUST 23, 1986
 Leave Link 9999 at Wed Oct 17 12:53:34 2012, MaxMem=  268435456 cpu:       0.0
 Job cpu time:  0 days  0 hours  0 minutes 10.3 seconds.
 File lengths (MBytes):  RWF=      9 Int=      0 D2E=      0 Chk=      1 Scr=      1
 Normal termination of Gaussian 09 at Wed Oct 17 12:53:34 2012.
 (Enter /home/est863/Gaussian/g09/l1.exe)
 Link1:  Proceeding to internal job step number  2.
 ----------------------------------------------------------------------
 #P Geom=AllCheck Guess=TCheck SCRF=Check GenChk RB3LYP/6-31+G(d,p) Fre
 q
 ----------------------------------------------------------------------
 1/10=4,29=7,30=1,38=1,40=1/1,3;
 2/12=2,40=1/2;
 3/5=1,6=6,7=111,11=2,14=-4,16=1,25=1,30=1,70=2,71=2,72=1,74=-5,116=1/1,2,3;
 4/5=101/1;
 5/5=2,53=1,98=1/2;
 8/6=4,10=90,11=11/1;
 11/6=1,8=1,9=11,15=111,16=1/1,2,10;
 10/6=1/2;
 6/7=2,8=2,9=2,10=2,18=1,28=1/1;
 7/8=1,10=1,25=1/1,2,3,16;
 1/10=4,30=1/3;
 99//99;
 Leave Link    1 at Wed Oct 17 12:53:34 2012, MaxMem=  268435456 cpu:       0.0
 (Enter /home/est863/Gaussian/g09/l101.exe)
 -------------------
 Title Card Required
 -------------------
 Redundant internal coordinates taken from checkpoint file:
 WATERopt.chk
 Charge =  0 Multiplicity = 1
 O,0,0.,0.,0.1194119855
 H,0,0.,0.7668429164,-0.4693504927
 H,0,0.,-0.7668429164,-0.4693504927
 Recover connectivity data from disk.
                    Isotopes and Nuclear Properties:
 (Nuclear quadrupole moments (NQMom) in fm**2, nuclear magnetic moments (NMagM)
  in nuclear magnetons)

  Atom         1           2           3
 IAtWgt=          16           1           1
 AtmWgt=  15.9949146   1.0078250   1.0078250
 NucSpn=           0           1           1
 AtZEff=  -5.6000000  -1.0000000  -1.0000000
 NQMom=    0.0000000   0.0000000   0.0000000
 NMagM=    0.0000000   2.7928460   2.7928460
 Leave Link  101 at Wed Oct 17 12:53:34 2012, MaxMem=  268435456 cpu:       0.1
 (Enter /home/est863/Gaussian/g09/l103.exe)

 GradGradGradGradGradGradGradGradGradGradGradGradGradGradGradGradGradGrad
 Berny optimization.
 Initialization pass.
                           ----------------------------
                           !    Initial Parameters    !
                           ! (Angstroms and Degrees)  !
 --------------------------                            --------------------------
 ! Name  Definition              Value          Derivative Info.                !
 --------------------------------------------------------------------------------
 ! R1    R(1,2)                  0.9668         calculate D2E/DX2 analytically  !
 ! R2    R(1,3)                  0.9668         calculate D2E/DX2 analytically  !
 ! A1    A(2,1,3)              104.9677         calculate D2E/DX2 analytically  !
 --------------------------------------------------------------------------------
 Trust Radius=3.00D-01 FncErr=1.00D-07 GrdErr=1.00D-07
 Number of steps in this run=   2 maximum allowed number of steps=   2.
 GradGradGradGradGradGradGradGradGradGradGradGradGradGradGradGradGradGrad

 Leave Link  103 at Wed Oct 17 12:53:34 2012, MaxMem=  268435456 cpu:       0.0
 (Enter /home/est863/Gaussian/g09/l202.exe)
                          Input orientation:                          
 ---------------------------------------------------------------------
 Center     Atomic      Atomic             Coordinates (Angstroms)
 Number     Number       Type             X           Y           Z
 ---------------------------------------------------------------------
      1          8           0        0.000000    0.000000    0.119412
      2          1           0        0.000000    0.766843   -0.469350
      3          1           0        0.000000   -0.766843   -0.469350
 ---------------------------------------------------------------------
                    Distance matrix (angstroms):
                    1          2          3
     1  O    0.000000
     2  H    0.966793   0.000000
     3  H    0.966793   1.533686   0.000000
 Stoichiometry    H2O
 Framework group  C2V[C2(O),SGV(H2)]
 Deg. of freedom     2
 Full point group                 C2V     NOp   4
 Largest Abelian subgroup         C2V     NOp   4
 Largest concise Abelian subgroup C2      NOp   2
                         Standard orientation:                         
 ---------------------------------------------------------------------
 Center     Atomic      Atomic             Coordinates (Angstroms)
 Number     Number       Type             X           Y           Z
 ---------------------------------------------------------------------
      1          8           0        0.000000    0.000000    0.117752
      2          1           0        0.000000    0.766843   -0.471010
      3          1           0        0.000000   -0.766843   -0.471010
 ---------------------------------------------------------------------
 Rotational constants (GHZ):    814.4552204    426.3725499    279.8626509
 Leave Link  202 at Wed Oct 17 12:53:34 2012, MaxMem=  268435456 cpu:       0.1
 (Enter /home/est863/Gaussian/g09/l301.exe)
 Standard basis: 6-31+G(d,p) (6D, 7F)
 Ernie: Thresh=  0.10000D-02 Tol=  0.10000D-05 Strict=F.
 There are    14 symmetry adapted basis functions of A1  symmetry.
 There are     2 symmetry adapted basis functions of A2  symmetry.
 There are     5 symmetry adapted basis functions of B1  symmetry.
 There are     8 symmetry adapted basis functions of B2  symmetry.
 Integral buffers will be    131072 words long.
 Raffenetti 2 integral format.
 Two-electron integral symmetry is turned on.
    29 basis functions,    46 primitive gaussians,    29 cartesian basis functions
     5 alpha electrons        5 beta electrons
       nuclear repulsion energy         9.1026840379 Hartrees.
 IExCor=  402 DFT=T Ex+Corr=B3LYP ExCW=0 ScaHFX=  0.200000
 ScaDFX=  0.800000  0.720000  1.000000  0.810000 ScalE2=  1.000000  1.000000
 IRadAn=      0 IRanWt=     -1 IRanGd=            0 ICorTp=0
 NAtoms=    3 NActive=    3 NUniq=    2 SFac= 1.69D+00 NAtFMM=   80 NAOKFM=F Big=F
 ------------------------------------------------------------------------------
 Polarizable Continuum Model (PCM)
 =================================
 Model                : PCM.
 Atomic radii         : UFF (Universal Force Field).
 Polarization charges : Total charges.
 Charge compensation  : None.
 Solution method      : Matrix inversion.
 Cavity type          : Scaled VdW (van der Waals Surface) (Alpha=1.100).
 Cavity algorithm     : GePol (No added spheres)
                        Default sphere list used, NSphG=    3.
                        Lebedev-Laikov grids with approx.  5.0 points / Ang**2.
                        Smoothing algorithm: Karplus/York (Gamma=1.0000).
                        Polarization charges: spherical gaussians, with
                                              point-specific exponents (IZeta= 3).
                        Self-potential: point-specific (ISelfS= 7).
                        Self-field    : sphere-specific E.n sum rule (ISelfD= 2).
 1st derivatives      : Analytical E(r).r(x)/FMM algorithm (CHGder, D1EAlg=3).
                        Cavity 1st derivative terms included.
 2nd derivatives      : Analytical E(r).r(xy)/FMM algorithm (CHGder, D2EAlg=3).
                        Cavity 2nd derivative terms included.
 Solvent              : Water, Eps=  78.355300 Eps(inf)=   1.777849
 ------------------------------------------------------------------------------
 Spheres list:
 ISph  on   Nord    Re0     Alpha      Xe            Ye            Ze
    1   O      1    1.750   1.100      0.000000      0.000000      0.117752
    2   H      2    1.443   1.100      0.000000      0.766843     -0.471010
    3   H      3    1.443   1.100      0.000000     -0.766843     -0.471010
 ------------------------------------------------------------------------------
 GePol: Number of generator spheres                  =       3
 GePol: Total number of spheres                      =       3
 GePol: Number of exposed spheres                    =       3 (100.00%)
 GePol: Number of points                             =     392
 GePol: Average weight of points                     =       0.14
 GePol: Minimum weight of points                     =   0.24D-05
 GePol: Maximum weight of points                     =    0.20212
 GePol: Number of points with low weight             =      12
 GePol: Fraction of low-weight points (<1% of avg)   =       3.06%
 GePol: Cavity surface area                          =     55.727 Ang**2
 GePol: Cavity volume                                =     37.534 Ang**3
 Leave Link  301 at Wed Oct 17 12:53:34 2012, MaxMem=  268435456 cpu:       0.0
 (Enter /home/est863/Gaussian/g09/l302.exe)
 NPDir=0 NMtPBC=     1 NCelOv=     1 NCel=       1 NClECP=     1 NCelD=      1
         NCelK=      1 NCelE2=     1 NClLst=     1 CellRange=     0.0.
 One-electron integrals computed using PRISM.
 One-electron integral symmetry used in STVInt
 NBasis=    29 RedAO= T  NBF=    14     2     5     8
 NBsUse=    29 1.00D-06 NBFU=    14     2     5     8
 Precomputing XC quadrature grid using
 IXCGrd= 2 IRadAn=           0 IRanWt=          -1 IRanGd=           0 AccXCQ= 1.00D-10.
 NRdTot=     187 NPtTot=       23652 NUsed=       25013 NTot=       25045
 NSgBfM=    29    29    29    29    29 NAtAll=     3     3.
 Leave Link  302 at Wed Oct 17 12:53:35 2012, MaxMem=  268435456 cpu:       0.4
 (Enter /home/est863/Gaussian/g09/l303.exe)
 DipDrv:  MaxL=1.
 Leave Link  303 at Wed Oct 17 12:53:35 2012, MaxMem=  268435456 cpu:       0.2
 (Enter /home/est863/Gaussian/g09/l401.exe)
 Initial guess read from the checkpoint file:  WATERopt.chk
 B after Tr=     0.000000    0.000000    0.000000
         Rot=    1.000000    0.000000    0.000000    0.000000 Ang=   0.00 deg.
 Guess basis will be translated and rotated to current coordinates.
 Initial guess orbital symmetries:
       Occupied  (A1) (A1) (B2) (A1) (B1)
       Virtual   (A1) (B2) (A1) (B1) (B2) (A1) (B2) (A1) (B2) (B1)
                 (A1) (A1) (A2) (A1) (B1) (A1) (B2) (B2) (A2) (B1)
                 (A1) (A1) (B2) (A1)
 The electronic state of the initial guess is 1-A1.
 Leave Link  401 at Wed Oct 17 12:53:35 2012, MaxMem=  268435456 cpu:       0.1
 (Enter /home/est863/Gaussian/g09/l502.exe)
 Closed shell SCF:
 Requested convergence on RMS density matrix=1.00D-08 within 128 cycles.
 Requested convergence on MAX density matrix=1.00D-06.
 Requested convergence on             energy=1.00D-06.
 No special actions if energy rises.
 Using DIIS extrapolation, IDIIS=  1040.
 Integral symmetry usage will be decided dynamically.
        24973 words used for storage of precomputed grid.
 Keep R1 ints in memory in canonical form, NReq=3186659.
 IEnd=       46098 IEndB=       46098 NGot=   268435456 MDV=   268312011
 LenX=   268312011 LenY=   268310729
 Symmetry not used in FoFDir.
 MinBra= 0 MaxBra= 2 Meth= 1.
 IRaf=       0 NMat=   1 IRICut=       1 DoRegI=T DoRafI=F ISym2E= 0 JSym2E=0.

 Cycle   1  Pass 1  IDiag  1:
 E= -76.4422998233306    
 DIIS: error= 3.86D-10 at cycle   1 NSaved=   1.
 NSaved= 1 IEnMin= 1 EnMin= -76.4422998233306     IErMin= 1 ErrMin= 3.86D-10
 ErrMax= 3.86D-10 EMaxC= 1.00D-01 BMatC= 3.82D-18 BMatP= 3.82D-18
 IDIUse=1 WtCom= 1.00D+00 WtEn= 0.00D+00
 Coeff-Com:  0.100D+01
 Coeff:      0.100D+01
 Gap=     0.360 Goal=   None    Shift=    0.000
 RMSDP=2.13D-10 MaxDP=2.60D-09              OVMax= 2.20D-09

 Error on total polarization charges =  0.00728
 SCF Done:  E(RB3LYP) =  -76.4422998233     A.U. after    1 cycles
             Convg  =    0.2126D-09             -V/T =  2.0097
 KE= 7.571072759360D+01 PE=-1.985095158627D+02 EE= 3.725380440782D+01
 Leave Link  502 at Wed Oct 17 12:53:35 2012, MaxMem=  268435456 cpu:       0.6
 (Enter /home/est863/Gaussian/g09/l801.exe)
 Range of M.O.s used for correlation:     1    29
 NBasis=    29 NAE=     5 NBE=     5 NFC=     0 NFV=     0
 NROrb=     29 NOA=     5 NOB=     5 NVA=    24 NVB=    24
 Leave Link  801 at Wed Oct 17 12:53:36 2012, MaxMem=  268435456 cpu:       0.0
 (Enter /home/est863/Gaussian/g09/l1101.exe)
 Using compressed storage, NAtomX=     3.
 Will process   4 centers per pass.
 Leave Link 1101 at Wed Oct 17 12:53:36 2012, MaxMem=  268435456 cpu:       0.4
 (Enter /home/est863/Gaussian/g09/l1102.exe)
 Symmetrizing basis deriv contribution to polar:
 IMax=3 JMax=2 DiffMx= 0.00D+00
 Leave Link 1102 at Wed Oct 17 12:53:36 2012, MaxMem=  268435456 cpu:       0.2
 (Enter /home/est863/Gaussian/g09/l1110.exe)
 Forming Gx(P) for the SCF density, NAtomX=     3.
 Integral derivatives from FoFDir/FoFCou, PRISM(SPDF).
 Do as many integral derivatives as possible in FoFDir.
 G2DrvN: MDV=     268435328.
 G2DrvN: will do     4 centers at a time, making    1 passes doing MaxLOS=2.
 Calling FoFCou, ICntrl=  3107 FMM=F I1Cent=   0 AccDes= 0.00D+00.
 FoFCou: FMM=F IPFlag=           0 FMFlag=      100000 FMFlg1=           0
         NFxFlg=           0 DoJE=F BraDBF=F KetDBF=F FulRan=T
         Omega=  0.000000  0.000000  1.000000  0.000000  0.000000 ICntrl=    3107 IOpCl=  0
         NMat0=    1 NMatS0=    1 NMatT0=    0 NMatD0=    1 NMtDS0=    0 NMtDT0=    0
         I1Cent=           0 NGrid=           0.
 Petite list used in FoFCou.
 FoFDir/FoFCou used for L=0 through L=2.
 G2PCM: DoFxE=T DoFxN=T DoGrad=T DoPD/DQ/DG=FFF NFrqRd=   0 IEInf=0 DoCFld=F IF1Alg=4.
 GePol: Maximum number of non-zero 1st derivatives   =     266
 End of G2Drv Frequency-dependent properties file   721 does not exist.
 End of G2Drv Frequency-dependent properties file   722 does not exist.
 Leave Link 1110 at Wed Oct 17 12:53:38 2012, MaxMem=  268435456 cpu:       2.6
 (Enter /home/est863/Gaussian/g09/l1002.exe)
 Minotr:  Closed shell wavefunction.
          IDoAtm=111
[...]
          MDV=     268435422 using IRadAn=       2.
 Generate precomputed XC quadrature information.
          Keep R1 ints in memory in canonical form, NReq=916070.
 Symmetry not used in FoFDir.
 MinBra= 0 MaxBra= 2 Meth= 1.
 IRaf=       0 NMat=   1 IRICut=       1 DoRegI=T DoRafI=F ISym2E= 0 JSym2E=0.
          Solving linear equations simultaneously, MaxMat=       0.
          There are     9 degrees of freedom in the 1st order CPHF.  IDoFFX=4.
      9 vectors produced by pass  0 Test12= 1.33D-15 1.11D-08 XBig12= 3.27D+00 1.40D+00.
 AX will form     9 AO Fock derivatives at one time.
      9 vectors produced by pass  1 Test12= 1.33D-15 1.11D-08 XBig12= 3.96D-01 2.41D-01.
      9 vectors produced by pass  2 Test12= 1.33D-15 1.11D-08 XBig12= 3.04D-03 2.13D-02.
      9 vectors produced by pass  3 Test12= 1.33D-15 1.11D-08 XBig12= 4.84D-06 9.46D-04.
      8 vectors produced by pass  4 Test12= 1.33D-15 1.11D-08 XBig12= 6.02D-09 3.43D-05.
      4 vectors produced by pass  5 Test12= 1.33D-15 1.11D-08 XBig12= 6.25D-12 1.06D-06.
      1 vectors produced by pass  6 Test12= 1.33D-15 1.11D-08 XBig12= 2.73D-15 1.93D-08.
 Inverted reduced A of dimension    49 with in-core refinement.
 FullF1:  Do perturbations    1 to     9.
 Isotropic polarizability for W=    0.000000        7.75 Bohr**3.
 End of Minotr Frequency-dependent properties file   721 does not exist.
 End of Minotr Frequency-dependent properties file   722 does not exist.
 Leave Link 1002 at Wed Oct 17 12:53:39 2012, MaxMem=  268435456 cpu:       2.0
 (Enter /home/est863/Gaussian/g09/l601.exe)
 Copying SCF densities to generalized density rwf, IOpCl= 0 IROHF=0.

 **********************************************************************

            Population analysis using the SCF density.

 **********************************************************************

 Orbital symmetries:
       Occupied  (A1) (A1) (B2) (A1) (B1)
       Virtual   (A1) (B2) (A1) (B1) (B2) (A1) (B2) (A1) (B2) (B1)
                 (A1) (A1) (A2) (A1) (B1) (A1) (B2) (B2) (A2) (B1)
                 (A1) (A1) (B2) (A1)
 The electronic state is 1-A1.
 Alpha  occ. eigenvalues --  -19.17188  -1.02233  -0.53936  -0.40147  -0.32609
 Alpha virt. eigenvalues --    0.03373   0.12034   0.13929   0.14629   0.20501
 Alpha virt. eigenvalues --    0.24800   0.90703   0.99782   1.08285   1.10646
 Alpha virt. eigenvalues --    1.12658   1.22525   1.50451   1.52752   1.62362
 Alpha virt. eigenvalues --    2.22821   2.25124   2.49935   2.62838   2.65270
 Alpha virt. eigenvalues --    3.02256   3.32103   3.51272   3.91343
          Condensed to atoms (all electrons):
              1          2          3
     1  O    8.206441   0.281899   0.281899
     2  H    0.281899   0.351851  -0.018870
     3  H    0.281899  -0.018870   0.351851
 Mulliken atomic charges:
              1
     1  O   -0.770239
     2  H    0.385120
     3  H    0.385120
 Sum of Mulliken atomic charges =   0.00000
 Mulliken charges with hydrogens summed into heavy atoms:
              1
     1  O    0.000000
 Sum of Mulliken charges with hydrogens summed into heavy atoms =   0.00000
 APT atomic charges:
              1
     1  O   -0.676946
     2  H    0.338473
     3  H    0.338473
 Sum of APT charges=   0.00000
 APT Atomic charges with hydrogens summed into heavy atoms:
              1
     1  O    0.000000
     2  H    0.000000
     3  H    0.000000
 Sum of APT charges=   0.00000
 Electronic spatial extent (au):  <R**2>=             20.1314
 Charge=              0.0000 electrons
 Dipole moment (field-independent basis, Debye):
    X=              0.0000    Y=              0.0000    Z=             -2.4629  Tot=              2.4629
 Quadrupole moment (field-independent basis, Debye-Ang):
   XX=             -7.9455   YY=             -4.3070   ZZ=             -6.5119
   XY=              0.0000   XZ=              0.0000   YZ=              0.0000
 Traceless Quadrupole moment (field-independent basis, Debye-Ang):
   XX=             -1.6907   YY=              1.9478   ZZ=             -0.2571
   XY=              0.0000   XZ=              0.0000   YZ=              0.0000
 Octapole moment (field-independent basis, Debye-Ang**2):
  XXX=              0.0000  YYY=              0.0000  ZZZ=             -1.9670  XYY=              0.0000
  XXY=              0.0000  XXZ=             -0.5826  XZZ=              0.0000  YZZ=              0.0000
  YYZ=             -1.6021  XYZ=              0.0000
 Hexadecapole moment (field-independent basis, Debye-Ang**3):
 XXXX=             -8.1575 YYYY=             -6.3126 ZZZZ=             -8.2005 XXXY=              0.0000
 XXXZ=              0.0000 YYYX=              0.0000 YYYZ=              0.0000 ZZZX=              0.0000
 ZZZY=              0.0000 XXYY=             -2.7107 XXZZ=             -2.7835 YYZZ=             -2.0671
 XXYZ=              0.0000 YYXZ=              0.0000 ZZXY=              0.0000
 N-N= 9.102684037902D+00 E-N=-1.985095158854D+02  KE= 7.571072759360D+01
 Symmetry A1   KE= 6.763732619627D+01
 Symmetry A2   KE= 4.163054338068D-35
 Symmetry B1   KE= 4.432592596949D+00
 Symmetry B2   KE= 3.640808800386D+00
  Exact polarizability:   7.565   0.000   8.493   0.000   0.000   7.194
 Approx polarizability:   6.937   0.000   9.344   0.000   0.000   7.478
 No NMR shielding tensors so no spin-rotation constants.
 Leave Link  601 at Wed Oct 17 12:53:40 2012, MaxMem=  268435456 cpu:       0.3
 (Enter /home/est863/Gaussian/g09/l701.exe)
 Compute integral second derivatives.
 ... and contract with generalized density number  0.
 D2PCM: PCM CHGder 2nd derivatives, FixD1E=F FixD2E=F DoIter=F DoCFld=F I1PDM=0
 GePol: Maximum number of non-zero 2nd derivatives   =     266
 Leave Link  701 at Wed Oct 17 12:53:40 2012, MaxMem=  268435456 cpu:       1.7
 (Enter /home/est863/Gaussian/g09/l702.exe)
 L702 exits ... SP integral derivatives will be done elsewhere.
 Leave Link  702 at Wed Oct 17 12:53:40 2012, MaxMem=  268435456 cpu:       0.0
 (Enter /home/est863/Gaussian/g09/l703.exe)
 Compute integral second derivatives, UseDBF=F ICtDFT=           0.
 Integral derivatives from FoFDir, PRISM(SPDF).
 Calling FoFJK, ICntrl=    100127 FMM=F ISym2X=1 I1Cent= 0 IOpClX= 0 NMat=1 NMatS=1 NMatT=0.
 FoFCou: FMM=F IPFlag=           0 FMFlag=      100000 FMFlg1=         800
         NFxFlg=           0 DoJE=F BraDBF=F KetDBF=F FulRan=T
         Omega=  0.000000  0.000000  1.000000  0.000000  0.000000 ICntrl=  100127 IOpCl=  0
         NMat0=    1 NMatS0=    1 NMatT0=    0 NMatD0=    1 NMtDS0=    0 NMtDT0=    0
         I1Cent=           0 NGrid=           0.
 Petite list used in FoFCou.
 Leave Link  703 at Wed Oct 17 12:53:41 2012, MaxMem=  268435456 cpu:       0.7
 (Enter /home/est863/Gaussian/g09/l716.exe)
 Dipole        =-6.05759443D-17-8.98153080D-16-9.68985089D-01
 Polarizability= 7.56507121D+00 9.26477548D-11 8.49323919D+00
                -6.29937791D-10-3.09974800D-10 7.19446005D+00
 Full mass-weighted force constant matrix:
 Low frequencies --- -164.7401  -84.1315   -7.6172    0.0015    0.0017    0.0019
 Low frequencies --- 1606.6638 3797.9041 3901.0362
 Diagonal vibrational polarizability:
        0.0000000       0.1876538       1.2933224
 Harmonic frequencies (cm**-1), IR intensities (KM/Mole), Raman scattering
 activities (A**4/AMU), depolarization ratios for plane and unpolarized
 incident light, reduced masses (AMU), force constants (mDyne/A),
 and normal coordinates:
                     1                      2                      3
                    A1                     A1                     B2
 Frequencies --  1606.6638              3797.9041              3901.0346
 Red. masses --     1.0827                 1.0452                 1.0823
 Frc consts  --     1.6466                 8.8823                 9.7043
 IR Inten    --   119.8264                23.6435               106.1167
  Atom  AN      X      Y      Z        X      Y      Z        X      Y      Z
     1   8     0.00   0.00   0.07     0.00   0.00   0.05     0.00   0.07   0.00
     2   1     0.00  -0.43  -0.56     0.00   0.58  -0.40     0.00  -0.56   0.43
     3   1     0.00   0.43  -0.56     0.00  -0.58  -0.40     0.00  -0.56  -0.43

 -------------------
 - Thermochemistry -
 -------------------
 Temperature   298.150 Kelvin.  Pressure   1.00000 Atm.
 Atom     1 has atomic number  8 and mass  15.99491
 Atom     2 has atomic number  1 and mass   1.00783
 Atom     3 has atomic number  1 and mass   1.00783
 Molecular mass:    18.01056 amu.
 Principal axes and moments of inertia in atomic units:
                           1         2         3
     Eigenvalues --     2.21589   4.23278   6.44867
           X            0.00000   0.00000   1.00000
           Y            1.00000   0.00000   0.00000
           Z            0.00000   1.00000   0.00000
 This molecule is an asymmetric top.
 Rotational symmetry number  2.
 Rotational temperatures (Kelvin)     39.08764    20.46263    13.43127
 Rotational constants (GHZ):         814.45522   426.37255   279.86265
 Zero-point vibrational energy      55659.9 (Joules/Mol)
                                   13.30303 (Kcal/Mol)
 Vibrational temperatures:   2311.63  5464.33  5612.71
          (Kelvin)
 
 Zero-point correction=                           0.021200 (Hartree/Particle)
 Thermal correction to Energy=                    0.024035
 Thermal correction to Enthalpy=                  0.024980
 Thermal correction to Gibbs Free Energy=         0.003543
 Sum of electronic and zero-point Energies=            -76.421100
 Sum of electronic and thermal Energies=               -76.418264
 Sum of electronic and thermal Enthalpies=             -76.417320
 Sum of electronic and thermal Free Energies=          -76.438757
 
                     E (Thermal)             CV                S
                      KCal/Mol        Cal/Mol-Kelvin    Cal/Mol-Kelvin
 Total                   15.082              6.013             45.117
 Electronic               0.000              0.000              0.000
 Translational            0.889              2.981             34.608
 Rotational               0.889              2.981             10.502
 Vibrational             13.305              0.051              0.007
                       Q            Log10(Q)             Ln(Q)
 Total Bot       0.234637D-01         -1.629604         -3.752301
 Total V=0       0.132303D+09          8.121571         18.700608
 Vib (Bot)       0.177424D-09         -9.750988        -22.452480
 Vib (V=0)       0.100043D+01          0.000187          0.000429
 Electronic      0.100000D+01          0.000000          0.000000
 Translational   0.300432D+07          6.477746         14.915562
 Rotational      0.440188D+02          1.643638          3.784617
 
                                                         Title Card Required
                                                             IR Spectrum
 
     3   3                                                                      1                                                    
     9   7                                                                      6                                                    
     0   9                                                                      0                                                    
     1   8                                                                      7                                                    
 
     X   X                                                                      X                                                    
     X   X                                                                      X                                                    
     X   X                                                                      X                                                    
     X   X                                                                      X                                                    
     X                                                                          X                                                    
     X                                                                          X                                                    
     X                                                                          X                                                    
     X                                                                          X                                                    
     X                                                                          X                                                    
     X                                                                          X                                                    
     X                                                                          X                                                    
     X                                                                          X                                                    
     X                                                                          X                                                    
     X                                                                          X                                                    
     X                                                                          X                                                    
     X                                                                          X                                                    
     X                                                                          X                                                    
     X                                                                          X                                                    
                                                                                X                                                    
                                                                                X                                                    
 
 ***** Axes restored to original set *****
 -------------------------------------------------------------------
 Center     Atomic                   Forces (Hartrees/Bohr)
 Number     Number              X              Y              Z
 -------------------------------------------------------------------
      1        8           0.000000000    0.000000000    0.000034170
      2        1           0.000000000   -0.000007682   -0.000017085
      3        1           0.000000000    0.000007682   -0.000017085
 -------------------------------------------------------------------
 Cartesian Forces:  Max     0.000034170 RMS     0.000014412
 Force constants in Cartesian coordinates: 
                1             2             3             4             5 
      1 -0.393057D-05
      2  0.000000D+00  0.676945D+00
      3  0.000000D+00  0.000000D+00  0.448224D+00
      4  0.196528D-05  0.000000D+00  0.000000D+00 -0.135961D-03
      5  0.000000D+00 -0.338472D+00  0.201741D+00  0.000000D+00  0.367350D+00
      6  0.000000D+00  0.260069D+00 -0.224112D+00  0.000000D+00 -0.230905D+00
      7  0.196528D-05  0.000000D+00  0.000000D+00  0.133996D-03  0.000000D+00
      8  0.000000D+00 -0.338472D+00 -0.201741D+00  0.000000D+00 -0.288773D-01
      9  0.000000D+00 -0.260069D+00 -0.224112D+00  0.000000D+00  0.291644D-01
                6             7             8             9 
      6  0.211182D+00
      7  0.000000D+00 -0.135961D-03
      8 -0.291644D-01  0.000000D+00  0.367350D+00
      9  0.129306D-01  0.000000D+00  0.230905D+00  0.211182D+00
 Force constants in internal coordinates: 
                1             2             3 
      1  0.532658D+00
      2 -0.536599D-02  0.532658D+00
      3  0.283574D-01  0.283574D-01  0.155292D+00
 Leave Link  716 at Wed Oct 17 12:53:41 2012, MaxMem=  268435456 cpu:       0.0
 (Enter /home/est863/Gaussian/g09/l103.exe)

 GradGradGradGradGradGradGradGradGradGradGradGradGradGradGradGradGradGrad
 Berny optimization.
 Internal  Forces:  Max     0.000033305 RMS     0.000019548
 Search for a local minimum.
 Step number   1 out of a maximum of    2
 All quantities printed in internal units (Hartrees-Bohrs-Radians)
 Second derivative matrix not updated -- analytic derivatives used.
 The second derivative matrix:
                          R1        R2        A1
           R1           0.53266
           R2          -0.00537   0.53266
           A1           0.02836   0.02836   0.15529
     Eigenvalues ---    0.15102   0.53157   0.53802
 Angle between quadratic step and forces=   3.07 degrees.
 Linear search not attempted -- first point.
 Iteration  1 RMS(Cart)=  0.00011977 RMS(Int)=  0.00000001
 Iteration  2 RMS(Cart)=  0.00000001 RMS(Int)=  0.00000000
 ClnCor:  largest displacement from symmetrization is 8.67D-16 for atom     3.
 Variable       Old X    -DE/DX   Delta X   Delta X   Delta X     New X
                                 (Linear)    (Quad)   (Total)
    R1        1.82697   0.00000   0.00000   0.00002   0.00002   1.82699
    R2        1.82697   0.00000   0.00000   0.00002   0.00002   1.82699
    A1        1.83203  -0.00003   0.00000  -0.00022  -0.00022   1.83181
         Item               Value     Threshold  Converged?
 Maximum Force            0.000033     0.000450     YES
 RMS     Force            0.000020     0.000300     YES
 Maximum Displacement     0.000115     0.001800     YES
 RMS     Displacement     0.000120     0.001200     YES
 Predicted change in Energy=-3.780408D-09
 Optimization completed.
    -- Stationary point found.
                           ----------------------------
                           !   Optimized Parameters   !
                           ! (Angstroms and Degrees)  !
 --------------------------                            --------------------------
 ! Name  Definition              Value          Derivative Info.                !
 --------------------------------------------------------------------------------
 ! R1    R(1,2)                  0.9668         -DE/DX =    0.0                 !
 ! R2    R(1,3)                  0.9668         -DE/DX =    0.0                 !
 ! A1    A(2,1,3)              104.9677         -DE/DX =    0.0                 !
 --------------------------------------------------------------------------------
 GradGradGradGradGradGradGradGradGradGradGradGradGradGradGradGradGradGrad

 Leave Link  103 at Wed Oct 17 12:53:41 2012, MaxMem=  268435456 cpu:       0.0
 (Enter /home/est863/Gaussian/g09/l9999.exe)
 1\1\GINC-LOCALHOST\Freq\RB3LYP\6-31+G(d,p)\H2O1\EST863\17-Oct-2012\0\\
 #P Geom=AllCheck Guess=TCheck SCRF=Check GenChk RB3LYP/6-31+G(d,p) Fre
 q\\Title Card Required\\0,1\O,0.,0.,0.1194119855\H,0.,0.7668429164,-0.
 4693504927\H,0.,-0.7668429164,-0.4693504927\\Version=EM64L-G09RevA.01\
 State=1-A1\HF=-76.4422998\RMSD=2.126e-10\RMSF=1.441e-05\ZeroPoint=0.02
 11997\Thermal=0.0240354\Dipole=0.,0.,-0.9689851\DipoleDeriv=-0.8712322
 ,0.,0.,0.,-0.6571194,0.,0.,0.,-0.5024853,0.4356161,0.,0.,0.,0.3285597,
 0.0555125,0.,0.0823305,0.2512427,0.4356161,0.,0.,0.,0.3285597,-0.05551
 25,0.,-0.0823305,0.2512427\Polar=7.5650712,0.,8.4932392,0.,0.,7.194460
 1\PG=C02V [C2(O1),SGV(H2)]\NImag=0\\-0.00000393,0.,0.67694480,0.,0.,0.
 44822446,0.00000197,0.,0.,-0.00013596,0.,-0.33847240,0.20174056,0.,0.3
 6734973,0.,0.26006933,-0.22411223,0.,-0.23090495,0.21118165,0.00000197
 ,0.,0.,0.00013400,0.,0.,-0.00013596,0.,-0.33847240,-0.20174056,0.,-0.0
 2887733,-0.02916438,0.,0.36734973,0.,-0.26006933,-0.22411223,0.,0.0291
 6438,0.01293058,0.,0.23090495,0.21118165\\0.,0.,-0.00003417,0.,0.00000
 768,0.00001708,0.,-0.00000768,0.00001708\\\@


 At the touch of love, everyone becomves a poet.
                                -- Plato
 Job cpu time:  0 days  0 hours  0 minutes  9.9 seconds.
 File lengths (MBytes):  RWF=      9 Int=      0 D2E=      0 Chk=      2 Scr=      1
 Normal termination of Gaussian 09 at Wed Oct 17 12:53:41 2012.
