 Entering Gaussian System, Link 0=g09
 Input=/home/est863/workspace/863program/src/forguassian/WATERopt/WATERopt.gjf
 Output=/home/est863/workspace/863program/src/forguassian/WATERopt/WATERopt.Gasoptlog
 Initial command:
 /home/est863/Gaussian/g09/l1.exe /home/est863/Gaussian/g09/scratch/Gau-10734.inp -scrdir=/home/est863/Gaussian/g09/scratch/
 Entering Link 1 = /home/est863/Gaussian/g09/l1.exe PID=     10735.
  
 Copyright (c) 1988,1990,1992,1993,1995,1998,2003,2009, Gaussian, Inc.
                  All Rights Reserved.
  
 This is part of the Gaussian(R) 09 program.  It is based on
 the Gaussian(R) 03 system (copyright 2003, Gaussian, Inc.),
 the Gaussian(R) 98 system (copyright 1998, Gaussian, Inc.),
 the Gaussian(R) 94 system (copyright 1995, Gaussian, Inc.),
 the Gaussian 92(TM) system (copyright 1992, Gaussian, Inc.),
 the Gaussian 90(TM) system (copyright 1990, Gaussian, Inc.),
 the Gaussian 88(TM) system (copyright 1988, Gaussian, Inc.),
 the Gaussian 86(TM) system (copyright 1986, Carnegie Mellon
 University), and the Gaussian 82(TM) system (copyright 1983,
 Carnegie Mellon University). Gaussian is a federally registered
 trademark of Gaussian, Inc.
  
 This software contains proprietary and confidential information,
 including trade secrets, belonging to Gaussian, Inc.
  
 This software is provided under written license and may be
 used, copied, transmitted, or stored only in accord with that
 written license.
  
 The following legend is applicable only to US Government
 contracts under FAR:
  
                    RESTRICTED RIGHTS LEGEND
  
 Use, reproduction and disclosure by the US Government is
 subject to restrictions as set forth in subparagraphs (a)
 and (c) of the Commercial Computer Software - Restricted
 Rights clause in FAR 52.227-19.
  
 Gaussian, Inc.
 340 Quinnipiac St., Bldg. 40, Wallingford CT 06492
  
  
 ---------------------------------------------------------------
 Warning -- This program may not be used in any manner that
 competes with the business of Gaussian, Inc. or will provide
 assistance to any competitor of Gaussian, Inc.  The licensee
 of this program is prohibited from giving any competitor of
 Gaussian, Inc. access to this program.  By using this program,
 the user acknowledges that Gaussian, Inc. is engaged in the
 business of creating and licensing software in the field of
 computational chemistry and represents and warrants to the
 licensee that it is not a competitor of Gaussian, Inc. and that
 it will not use this program in any manner prohibited above.
 ---------------------------------------------------------------
  

 Cite this work as:
 Gaussian 09, Revision A.01,
 M. J. Frisch, G. W. Trucks, H. B. Schlegel, G. E. Scuseria, 
 M. A. Robb, J. R. Cheeseman, G. Scalmani, V. Barone, B. Mennucci, 
 G. A. Petersson, H. Nakatsuji, M. Caricato, X. Li, H. P. Hratchian, 
 A. F. Izmaylov, J. Bloino, G. Zheng, J. L. Sonnenberg, M. Hada, 
 M. Ehara, K. Toyota, R. Fukuda, J. Hasegawa, M. Ishida, T. Nakajima, 
 Y. Honda, O. Kitao, H. Nakai, T. Vreven, J. A. Montgomery, Jr., 
 J. E. Peralta, F. Ogliaro, M. Bearpark, J. J. Heyd, E. Brothers, 
 K. N. Kudin, V. N. Staroverov, R. Kobayashi, J. Normand, 
 K. Raghavachari, A. Rendell, J. C. Burant, S. S. Iyengar, J. Tomasi, 
 M. Cossi, N. Rega, J. M. Millam, M. Klene, J. E. Knox, J. B. Cross, 
 V. Bakken, C. Adamo, J. Jaramillo, R. Gomperts, R. E. Stratmann, 
 O. Yazyev, A. J. Austin, R. Cammi, C. Pomelli, J. W. Ochterski, 
 R. L. Martin, K. Morokuma, V. G. Zakrzewski, G. A. Voth, 
 P. Salvador, J. J. Dannenberg, S. Dapprich, A. D. Daniels, 
 O. Farkas, J. B. Foresman, J. V. Ortiz, J. Cioslowski, 
 and D. J. Fox, Gaussian, Inc., Wallingford CT, 2009.
 
 ******************************************
 Gaussian 09:  EM64L-G09RevA.01  8-May-2009
                17-Oct-2012 
 ******************************************
 %chk=WATERopt.chk
 %nproc=2
 Will use up to    2 processors via shared memory.
 %mem=2GB
 ------------------------------------
 #p rb3lyp/6-31+g(d,p) opt freq polar
 ------------------------------------
 1/14=-1,18=20,19=15,26=3,38=1/1,3;
 2/9=110,12=2,17=6,18=5,40=1/2;
 3/5=1,6=6,7=111,11=2,16=1,25=1,30=1,71=1,74=-5,116=1/1,2,3;
 4//1;
 5/5=2,38=5,98=1/2;
 6/7=2,8=2,9=2,10=2,28=1/1;
 7//1,2,3,16;
 1/14=-1,18=20,19=15/3(2);
 2/9=110/2;
 99//99;
 2/9=110/2;
 3/5=1,6=6,7=111,11=2,16=1,25=1,30=1,71=1,74=-5,116=1/1,2,3;
 4/5=5,16=3/1;
 5/5=2,38=5,98=1/2;
 7//1,2,3,16;
 1/14=-1,18=20,19=15/3(-5);
 2/9=110/2;
 6/7=2,8=2,9=2,10=2,19=2,28=1/1;
 99/9=1/99;
 Leave Link    1 at Wed Oct 17 12:53:29 2012, MaxMem=  268435456 cpu:       0.0
 (Enter /home/est863/Gaussian/g09/l101.exe)
 -------------------
 Title Card Required
 -------------------
 Symbolic Z-matrix:
 Charge =  0 Multiplicity = 1
 O                     0.        0.        0.11704 
 H                     0.        0.76349  -0.46817 
 H                     0.       -0.76349  -0.46817 
 
 NAtoms=      3 NQM=      3 NQMF=      0 NMic=      0 NMicF=      0 NTot=      3.
                    Isotopes and Nuclear Properties:
 (Nuclear quadrupole moments (NQMom) in fm**2, nuclear magnetic moments (NMagM)
  in nuclear magnetons)

  Atom         1           2           3
 IAtWgt=          16           1           1
 AtmWgt=  15.9949146   1.0078250   1.0078250
 NucSpn=           0           1           1
 AtZEff=   0.0000000   0.0000000   0.0000000
 NQMom=    0.0000000   0.0000000   0.0000000
 NMagM=    0.0000000   2.7928460   2.7928460
 Leave Link  101 at Wed Oct 17 12:53:29 2012, MaxMem=  268435456 cpu:       0.1
 (Enter /home/est863/Gaussian/g09/l103.exe)

 GradGradGradGradGradGradGradGradGradGradGradGradGradGradGradGradGradGrad
 Berny optimization.
 Initialization pass.
                           ----------------------------
                           !    Initial Parameters    !
                           ! (Angstroms and Degrees)  !
 --------------------------                            --------------------------
 ! Name  Definition              Value          Derivative Info.                !
 --------------------------------------------------------------------------------
 ! R1    R(1,2)                  0.962          estimate D2E/DX2                !
 ! R2    R(1,3)                  0.962          estimate D2E/DX2                !
 ! A1    A(2,1,3)              105.0603         estimate D2E/DX2                !
 --------------------------------------------------------------------------------
 Trust Radius=3.00D-01 FncErr=1.00D-07 GrdErr=1.00D-06
 Number of steps in this run=  20 maximum allowed number of steps= 100.
 GradGradGradGradGradGradGradGradGradGradGradGradGradGradGradGradGradGrad

 Leave Link  103 at Wed Oct 17 12:53:29 2012, MaxMem=  268435456 cpu:       0.0
 (Enter /home/est863/Gaussian/g09/l202.exe)
                          Input orientation:                          
 ---------------------------------------------------------------------
 Center     Atomic      Atomic             Coordinates (Angstroms)
 Number     Number       Type             X           Y           Z
 ---------------------------------------------------------------------
      1          8           0        0.000000    0.000000    0.117041
      2          1           0        0.000000    0.763487   -0.468165
      3          1           0        0.000000   -0.763487   -0.468165
 ---------------------------------------------------------------------
                    Distance matrix (angstroms):
                    1          2          3
     1  O    0.000000
     2  H    0.961966   0.000000
     3  H    0.961966   1.526974   0.000000
 Stoichiometry    H2O
 Framework group  C2V[C2(O),SGV(H2)]
 Deg. of freedom     2
 Full point group                 C2V     NOp   4
 Largest Abelian subgroup         C2V     NOp   4
 Largest concise Abelian subgroup C2      NOp   2
                         Standard orientation:                         
 ---------------------------------------------------------------------
 Center     Atomic      Atomic             Coordinates (Angstroms)
 Number     Number       Type             X           Y           Z
 ---------------------------------------------------------------------
      1          8           0        0.000000    0.000000    0.117041
      2          1           0        0.000000    0.763487   -0.468165
      3          1           0        0.000000   -0.763487   -0.468165
 ---------------------------------------------------------------------
 Rotational constants (GHZ):    824.3846947    430.1290391    282.6527817
 Leave Link  202 at Wed Oct 17 12:53:29 2012, MaxMem=  268435456 cpu:       0.0
 (Enter /home/est863/Gaussian/g09/l301.exe)
 Standard basis: 6-31+G(d,p) (6D, 7F)
 Ernie: Thresh=  0.10000D-02 Tol=  0.10000D-05 Strict=F.
 There are    14 symmetry adapted basis functions of A1  symmetry.
 There are     2 symmetry adapted basis functions of A2  symmetry.
 There are     5 symmetry adapted basis functions of B1  symmetry.
 There are     8 symmetry adapted basis functions of B2  symmetry.
 Integral buffers will be    131072 words long.
 Raffenetti 2 integral format.
 Two-electron integral symmetry is turned on.
    29 basis functions,    46 primitive gaussians,    29 cartesian basis functions
     5 alpha electrons        5 beta electrons
       nuclear repulsion energy         9.1481486584 Hartrees.
 IExCor=  402 DFT=T Ex+Corr=B3LYP ExCW=0 ScaHFX=  0.200000
 ScaDFX=  0.800000  0.720000  1.000000  0.810000 ScalE2=  1.000000  1.000000
 IRadAn=      0 IRanWt=     -1 IRanGd=            0 ICorTp=0
 NAtoms=    3 NActive=    3 NUniq=    2 SFac= 1.69D+00 NAtFMM=   80 NAOKFM=F Big=F
 Leave Link  301 at Wed Oct 17 12:53:29 2012, MaxMem=  268435456 cpu:       0.0
 (Enter /home/est863/Gaussian/g09/l302.exe)
 NPDir=0 NMtPBC=     1 NCelOv=     1 NCel=       1 NClECP=     1 NCelD=      1
         NCelK=      1 NCelE2=     1 NClLst=     1 CellRange=     0.0.
 One-electron integrals computed using PRISM.
 One-electron integral symmetry used in STVInt
 NBasis=    29 RedAO= T  NBF=    14     2     5     8
 NBsUse=    29 1.00D-06 NBFU=    14     2     5     8
 Precomputing XC quadrature grid using
 IXCGrd= 2 IRadAn=           0 IRanWt=          -1 IRanGd=           0 AccXCQ= 1.00D-10.
 NRdTot=     187 NPtTot=       23652 NUsed=       25013 NTot=       25045
 NSgBfM=    29    29    29    29    29 NAtAll=     3     3.
 Leave Link  302 at Wed Oct 17 12:53:29 2012, MaxMem=  268435456 cpu:       0.2
 (Enter /home/est863/Gaussian/g09/l303.exe)
 DipDrv:  MaxL=1.
 Leave Link  303 at Wed Oct 17 12:53:29 2012, MaxMem=  268435456 cpu:       0.0
 (Enter /home/est863/Gaussian/g09/l401.exe)
 Harris functional with IExCor=  402 diagonalized for initial guess.
 ExpMin= 8.45D-02 ExpMax= 5.48D+03 ExpMxC= 8.25D+02 IAcc=2 IRadAn=         0 AccDes= 0.00D+00
 HarFok:  IExCor=  402 AccDes= 0.00D+00 IRadAn=         0 IDoV= 1
 ScaDFX=  1.000000  1.000000  1.000000  1.000000
 FoFCou: FMM=F IPFlag=           0 FMFlag=      100000 FMFlg1=           0
         NFxFlg=           0 DoJE=T BraDBF=F KetDBF=T FulRan=T
         Omega=  0.000000  0.000000  1.000000  0.000000  0.000000 ICntrl=     500 IOpCl=  0
         NMat0=    1 NMatS0=    1 NMatT0=    0 NMatD0=    1 NMtDS0=    0 NMtDT0=    0
         I1Cent=           4 NGrid=           0.
 Petite list used in FoFCou.
 Harris En= -76.4704698454455    
 Initial guess orbital symmetries:
       Occupied  (A1) (A1) (B2) (A1) (B1)
       Virtual   (A1) (B2) (A1) (B1) (B2) (A1) (B2) (A1) (B1) (B2)
                 (A1) (A1) (A2) (A1) (B1) (A1) (B2) (B2) (A2) (B1)
                 (A1) (A1) (B2) (A1)
 The electronic state of the initial guess is 1-A1.
 Leave Link  401 at Wed Oct 17 12:53:29 2012, MaxMem=  268435456 cpu:       0.2
 (Enter /home/est863/Gaussian/g09/l502.exe)
 Closed shell SCF:
 Requested convergence on RMS density matrix=1.00D-08 within 128 cycles.
 Requested convergence on MAX density matrix=1.00D-06.
 Requested convergence on             energy=1.00D-06.
 No special actions if energy rises.
 Using DIIS extrapolation, IDIIS=  1040.
 Integral symmetry usage will be decided dynamically.
        24973 words used for storage of precomputed grid.
 Keep R1 ints in memory in canonical form, NReq=999482.
 IEnd=       46098 IEndB=       46098 NGot=   268435456 MDV=   268312011
 LenX=   268312011 LenY=   268310729
 Symmetry not used in FoFDir.
 MinBra= 0 MaxBra= 2 Meth= 1.
 IRaf=       0 NMat=   1 IRICut=       1 DoRegI=T DoRafI=F ISym2E= 0 JSym2E=0.
 Integral accuracy reduced to 1.0D-05 until final iterations.

 Cycle   1  Pass 0  IDiag  1:
 E= -76.3595095613760    
 DIIS: error= 6.91D-02 at cycle   1 NSaved=   1.
 NSaved= 1 IEnMin= 1 EnMin= -76.3595095613760     IErMin= 1 ErrMin= 6.91D-02
 ErrMax= 6.91D-02 EMaxC= 1.00D-01 BMatC= 9.70D-02 BMatP= 9.70D-02
 IDIUse=3 WtCom= 3.09D-01 WtEn= 6.91D-01
 Coeff-Com:  0.100D+01
 Coeff-En:   0.100D+01
 Coeff:      0.100D+01
 Gap=     0.199 Goal=   None    Shift=    0.000
 GapD=    0.199 DampG=1.000 DampE=0.500 DampFc=0.5000 IDamp=-1.
 Damping current iteration by 5.00D-01
 RMSDP=1.67D-02 MaxDP=1.80D-01              OVMax= 2.22D-01

 Cycle   2  Pass 0  IDiag  1:
 E= -76.3724180993669     Delta-E=       -0.012908537991 Rises=F Damp=T
 DIIS: error= 2.64D-02 at cycle   2 NSaved=   2.
 NSaved= 2 IEnMin= 2 EnMin= -76.3724180993669     IErMin= 2 ErrMin= 2.64D-02
 ErrMax= 2.64D-02 EMaxC= 1.00D-01 BMatC= 1.34D-02 BMatP= 9.70D-02
 IDIUse=3 WtCom= 7.36D-01 WtEn= 2.64D-01
 Coeff-Com:  0.262D+00 0.738D+00
 Coeff-En:   0.423D+00 0.577D+00
 Coeff:      0.305D+00 0.695D+00
 Gap=     0.329 Goal=   None    Shift=    0.000
 RMSDP=2.17D-03 MaxDP=2.01D-02 DE=-1.29D-02 OVMax= 1.43D-01

 Cycle   3  Pass 0  IDiag  1:
 E= -76.4336695404275     Delta-E=       -0.061251441061 Rises=F Damp=F
 DIIS: error= 4.52D-03 at cycle   3 NSaved=   3.
 NSaved= 3 IEnMin= 3 EnMin= -76.4336695404275     IErMin= 3 ErrMin= 4.52D-03
 ErrMax= 4.52D-03 EMaxC= 1.00D-01 BMatC= 5.16D-04 BMatP= 1.34D-02
 IDIUse=3 WtCom= 9.55D-01 WtEn= 4.52D-02
 Coeff-Com:  0.609D-01-0.199D-01 0.959D+00
 Coeff-En:   0.000D+00 0.000D+00 0.100D+01
 Coeff:      0.581D-01-0.190D-01 0.961D+00
 Gap=     0.346 Goal=   None    Shift=    0.000
 RMSDP=3.79D-04 MaxDP=4.45D-03 DE=-6.13D-02 OVMax= 4.85D-03

 Cycle   4  Pass 0  IDiag  1:
 E= -76.4340137164291     Delta-E=       -0.000344176002 Rises=F Damp=F
 DIIS: error= 4.23D-04 at cycle   4 NSaved=   4.
 NSaved= 4 IEnMin= 4 EnMin= -76.4340137164291     IErMin= 4 ErrMin= 4.23D-04
 ErrMax= 4.23D-04 EMaxC= 1.00D-01 BMatC= 3.94D-06 BMatP= 5.16D-04
 IDIUse=3 WtCom= 9.96D-01 WtEn= 4.23D-03
 Coeff-Com:  0.892D-02-0.223D-01 0.203D+00 0.811D+00
 Coeff-En:   0.000D+00 0.000D+00 0.000D+00 0.100D+01
 Coeff:      0.889D-02-0.222D-01 0.202D+00 0.811D+00
 Gap=     0.347 Goal=   None    Shift=    0.000
 RMSDP=3.16D-05 MaxDP=2.25D-04 DE=-3.44D-04 OVMax= 4.33D-04

 Cycle   5  Pass 0  IDiag  1:
 E= -76.4340164165753     Delta-E=       -0.000002700146 Rises=F Damp=F
 DIIS: error= 1.50D-04 at cycle   5 NSaved=   5.
 NSaved= 5 IEnMin= 5 EnMin= -76.4340164165753     IErMin= 5 ErrMin= 1.50D-04
 ErrMax= 1.50D-04 EMaxC= 1.00D-01 BMatC= 4.33D-07 BMatP= 3.94D-06
 IDIUse=3 WtCom= 9.99D-01 WtEn= 1.50D-03
 Coeff-Com:  0.219D-02-0.312D-02 0.163D-01 0.637D-01 0.921D+00
 Coeff-En:   0.000D+00 0.000D+00 0.000D+00 0.000D+00 0.100D+01
 Coeff:      0.219D-02-0.312D-02 0.163D-01 0.636D-01 0.921D+00
 Gap=     0.347 Goal=   None    Shift=    0.000
 RMSDP=1.28D-05 MaxDP=1.36D-04 DE=-2.70D-06 OVMax= 1.71D-04

 Cycle   6  Pass 0  IDiag  1:
 E= -76.4340167508907     Delta-E=       -0.000000334315 Rises=F Damp=F
 DIIS: error= 1.29D-05 at cycle   6 NSaved=   6.
 NSaved= 6 IEnMin= 6 EnMin= -76.4340167508907     IErMin= 6 ErrMin= 1.29D-05
 ErrMax= 1.29D-05 EMaxC= 1.00D-01 BMatC= 3.04D-09 BMatP= 4.33D-07
 IDIUse=1 WtCom= 1.00D+00 WtEn= 0.00D+00
 Coeff-Com: -0.105D-04 0.156D-04-0.422D-03-0.491D-02-0.768D-01 0.108D+01
 Coeff:     -0.105D-04 0.156D-04-0.422D-03-0.491D-02-0.768D-01 0.108D+01
 Gap=     0.347 Goal=   None    Shift=    0.000
 RMSDP=1.13D-06 MaxDP=1.36D-05 DE=-3.34D-07 OVMax= 1.68D-05

 Initial convergence to 1.0D-05 achieved.  Increase integral accuracy.
 Cycle   7  Pass 1  IDiag  1:
 E= -76.4340138024516     Delta-E=        0.000002948439 Rises=F Damp=F
 DIIS: error= 3.34D-06 at cycle   1 NSaved=   1.
 NSaved= 1 IEnMin= 1 EnMin= -76.4340138024516     IErMin= 1 ErrMin= 3.34D-06
 ErrMax= 3.34D-06 EMaxC= 1.00D-01 BMatC= 1.16D-10 BMatP= 1.16D-10
 IDIUse=1 WtCom= 1.00D+00 WtEn= 0.00D+00
 Coeff-Com:  0.100D+01
 Coeff:      0.100D+01
 Gap=     0.347 Goal=   None    Shift=    0.000
 RMSDP=1.13D-06 MaxDP=1.36D-05 DE= 2.95D-06 OVMax= 1.36D-05

 Cycle   8  Pass 1  IDiag  1:
 E= -76.4340138026541     Delta-E=       -0.000000000202 Rises=F Damp=F
 DIIS: error= 1.49D-06 at cycle   2 NSaved=   2.
 NSaved= 2 IEnMin= 2 EnMin= -76.4340138026541     IErMin= 2 ErrMin= 1.49D-06
 ErrMax= 1.49D-06 EMaxC= 1.00D-01 BMatC= 4.71D-11 BMatP= 1.16D-10
 IDIUse=1 WtCom= 1.00D+00 WtEn= 0.00D+00
 Coeff-Com:  0.311D+00 0.689D+00
 Coeff:      0.311D+00 0.689D+00
 Gap=     0.347 Goal=   None    Shift=    0.000
 RMSDP=2.32D-07 MaxDP=2.71D-06 DE=-2.02D-10 OVMax= 3.33D-06

 Cycle   9  Pass 1  IDiag  1:
 E= -76.4340138026687     Delta-E=       -0.000000000015 Rises=F Damp=F
 DIIS: error= 1.27D-06 at cycle   3 NSaved=   3.
 NSaved= 3 IEnMin= 3 EnMin= -76.4340138026687     IErMin= 3 ErrMin= 1.27D-06
 ErrMax= 1.27D-06 EMaxC= 1.00D-01 BMatC= 2.82D-11 BMatP= 4.71D-11
 IDIUse=1 WtCom= 1.00D+00 WtEn= 0.00D+00
 Coeff-Com: -0.260D-01 0.443D+00 0.583D+00
 Coeff:     -0.260D-01 0.443D+00 0.583D+00
 Gap=     0.347 Goal=   None    Shift=    0.000
 RMSDP=9.97D-08 MaxDP=1.40D-06 DE=-1.47D-11 OVMax= 1.75D-06

 Cycle  10  Pass 1  IDiag  1:
 E= -76.4340138026893     Delta-E=       -0.000000000021 Rises=F Damp=F
 DIIS: error= 2.84D-08 at cycle   4 NSaved=   4.
 NSaved= 4 IEnMin= 4 EnMin= -76.4340138026893     IErMin= 4 ErrMin= 2.84D-08
 ErrMax= 2.84D-08 EMaxC= 1.00D-01 BMatC= 2.04D-14 BMatP= 2.82D-11
 IDIUse=1 WtCom= 1.00D+00 WtEn= 0.00D+00
 Coeff-Com: -0.694D-02 0.395D-01 0.589D-01 0.908D+00
 Coeff:     -0.694D-02 0.395D-01 0.589D-01 0.908D+00
 Gap=     0.347 Goal=   None    Shift=    0.000
 RMSDP=4.54D-09 MaxDP=3.75D-08 DE=-2.06D-11 OVMax= 6.18D-08

 SCF Done:  E(RB3LYP) =  -76.4340138027     A.U. after   10 cycles
             Convg  =    0.4540D-08             -V/T =  2.0091
 KE= 7.574525015156D+01 PE=-1.985940632844D+02 EE= 3.726665067183D+01
 Leave Link  502 at Wed Oct 17 12:53:29 2012, MaxMem=  268435456 cpu:       0.3
 (Enter /home/est863/Gaussian/g09/l601.exe)
 Copying SCF densities to generalized density rwf, IOpCl= 0 IROHF=0.

 **********************************************************************

            Population analysis using the SCF density.

 **********************************************************************

 Orbital symmetries:
       Occupied  (A1) (A1) (B2) (A1) (B1)
       Virtual   (A1) (B2) (B1) (A1) (B2) (A1) (B2) (A1) (B2) (B1)
                 (A1) (A1) (A2) (A1) (B1) (A1) (B2) (B2) (A2) (B1)
                 (A1) (A1) (B2) (A1)
 The electronic state is 1-A1.
 Alpha  occ. eigenvalues --  -19.16940  -1.02416  -0.54229  -0.39575  -0.32142
 Alpha virt. eigenvalues --    0.02534   0.11511   0.15503   0.15514   0.20637
 Alpha virt. eigenvalues --    0.24427   0.90099   0.99275   1.08653   1.11258
 Alpha virt. eigenvalues --    1.12846   1.23196   1.50465   1.53155   1.62837
 Alpha virt. eigenvalues --    2.23445   2.24873   2.50728   2.63219   2.65429
 Alpha virt. eigenvalues --    3.02878   3.32524   3.51676   3.92277
          Condensed to atoms (all electrons):
              1          2          3
     1  O    8.145642   0.282139   0.282139
     2  H    0.282139   0.387093  -0.024192
     3  H    0.282139  -0.024192   0.387093
 Mulliken atomic charges:
              1
     1  O   -0.709920
     2  H    0.354960
     3  H    0.354960
 Sum of Mulliken atomic charges =   0.00000
 Mulliken charges with hydrogens summed into heavy atoms:
              1
     1  O    0.000000
 Sum of Mulliken charges with hydrogens summed into heavy atoms =   0.00000
 Electronic spatial extent (au):  <R**2>=             20.0983
 Charge=              0.0000 electrons
 Dipole moment (field-independent basis, Debye):
    X=              0.0000    Y=              0.0000    Z=             -2.2047  Tot=              2.2047
 Quadrupole moment (field-independent basis, Debye-Ang):
   XX=             -7.8747   YY=             -4.4128   ZZ=             -6.5138
   XY=              0.0000   XZ=              0.0000   YZ=              0.0000
 Traceless Quadrupole moment (field-independent basis, Debye-Ang):
   XX=             -1.6076   YY=              1.8543   ZZ=             -0.2467
   XY=              0.0000   XZ=              0.0000   YZ=              0.0000
 Octapole moment (field-independent basis, Debye-Ang**2):
  XXX=              0.0000  YYY=              0.0000  ZZZ=             -1.6257  XYY=              0.0000
  XXY=              0.0000  XXZ=             -0.4832  XZZ=              0.0000  YZZ=              0.0000
  YYZ=             -1.3968  XYZ=              0.0000
 Hexadecapole moment (field-independent basis, Debye-Ang**3):
 XXXX=             -7.9396 YYYY=             -6.5057 ZZZZ=             -8.1261 XXXY=              0.0000
 XXXZ=              0.0000 YYYX=              0.0000 YYYZ=              0.0000 ZZZX=              0.0000
 ZZZY=              0.0000 XXYY=             -2.6864 XXZZ=             -2.7308 YYZZ=             -2.1190
 XXYZ=              0.0000 YYXZ=              0.0000 ZZXY=              0.0000
 N-N= 9.148148658354D+00 E-N=-1.985940629716D+02  KE= 7.574525015156D+01
 Symmetry A1   KE= 6.765996320878D+01
 Symmetry A2   KE= 1.712178566653D-36
 Symmetry B1   KE= 4.464879208447D+00
 Symmetry B2   KE= 3.620407734327D+00
 No NMR shielding tensors so no spin-rotation constants.
 Leave Link  601 at Wed Oct 17 12:53:29 2012, MaxMem=  268435456 cpu:       0.2
 (Enter /home/est863/Gaussian/g09/l701.exe)
 Compute integral first derivatives.
 ... and contract with generalized density number  0.
 Leave Link  701 at Wed Oct 17 12:53:29 2012, MaxMem=  268435456 cpu:       0.2
 (Enter /home/est863/Gaussian/g09/l702.exe)
 L702 exits ... SP integral derivatives will be done elsewhere.
 Leave Link  702 at Wed Oct 17 12:53:29 2012, MaxMem=  268435456 cpu:       0.0
 (Enter /home/est863/Gaussian/g09/l703.exe)
 Compute integral first derivatives, UseDBF=F ICtDFT=           0.
 Integral derivatives from FoFDir, PRISM(SPDF).
 Calling FoFJK, ICntrl=      2127 FMM=F ISym2X=1 I1Cent= 0 IOpClX= 0 NMat=1 NMatS=1 NMatT=0.
 FoFCou: FMM=F IPFlag=           0 FMFlag=      100000 FMFlg1=         800
         NFxFlg=           0 DoJE=F BraDBF=F KetDBF=F FulRan=T
         Omega=  0.000000  0.000000  1.000000  0.000000  0.000000 ICntrl=    2127 IOpCl=  0
         NMat0=    1 NMatS0=    1 NMatT0=    0 NMatD0=    1 NMtDS0=    0 NMtDT0=    0
         I1Cent=           0 NGrid=           0.
 Petite list used in FoFCou.
 Leave Link  703 at Wed Oct 17 12:53:30 2012, MaxMem=  268435456 cpu:       0.3
 (Enter /home/est863/Gaussian/g09/l716.exe)
 Dipole        =-5.55158428D-17 0.00000000D+00-8.67379820D-01
 ***** Axes restored to original set *****
 -------------------------------------------------------------------
 Center     Atomic                   Forces (Hartrees/Bohr)
 Number     Number              X              Y              Z
 -------------------------------------------------------------------
      1        8           0.000000000    0.000000000    0.002349987
      2        1           0.000000000    0.003534855   -0.001174994
      3        1           0.000000000   -0.003534855   -0.001174994
 -------------------------------------------------------------------
 Cartesian Forces:  Max     0.003534855 RMS     0.001922789
 Leave Link  716 at Wed Oct 17 12:53:30 2012, MaxMem=  268435456 cpu:       0.0
 (Enter /home/est863/Gaussian/g09/l103.exe)

 GradGradGradGradGradGradGradGradGradGradGradGradGradGradGradGradGradGrad
 Berny optimization.
 Internal  Forces:  Max     0.003520322 RMS     0.003145713
 Search for a local minimum.
 Step number   1 out of a maximum of   20
 All quantities printed in internal units (Hartrees-Bohrs-Radians)
 RMS Force = .31457D-02 SwitMx=.10000D-02 MixMth= 1
 Mixed Optimization -- RFO/linear search
 Second derivative matrix not updated -- first step.
 The second derivative matrix:
                          R1        R2        A1
           R1           0.55053
           R2           0.00000   0.55053
           A1           0.00000   0.00000   0.16000
     Eigenvalues ---    0.16000   0.55053   0.55053
 RFO step:  Lambda=-7.56328969D-05 EMin= 1.60000000D-01
 Linear search not attempted -- first point.
 Iteration  1 RMS(Cart)=  0.01077627 RMS(Int)=  0.00004517
 Iteration  2 RMS(Cart)=  0.00002970 RMS(Int)=  0.00000000
 Iteration  3 RMS(Cart)=  0.00000000 RMS(Int)=  0.00000000
 ClnCor:  largest displacement from symmetrization is 2.48D-16 for atom     3.
 Variable       Old X    -DE/DX   Delta X   Delta X   Delta X     New X
                                 (Linear)    (Quad)   (Total)
    R1        1.81785   0.00352   0.00000   0.00639   0.00639   1.82425
    R2        1.81785   0.00352   0.00000   0.00639   0.00639   1.82425
    A1        1.83365   0.00221   0.00000   0.01383   0.01383   1.84748
         Item               Value     Threshold  Converged?
 Maximum Force            0.003520     0.000450     NO 
 RMS     Force            0.003146     0.000300     NO 
 Maximum Displacement     0.012714     0.001800     NO 
 RMS     Displacement     0.010778     0.001200     NO 
 Predicted change in Energy=-3.782678D-05
 GradGradGradGradGradGradGradGradGradGradGradGradGradGradGradGradGradGrad

 Leave Link  103 at Wed Oct 17 12:53:30 2012, MaxMem=  268435456 cpu:       0.0
 (Enter /home/est863/Gaussian/g09/l202.exe)
                          Input orientation:                          
 ---------------------------------------------------------------------
 Center     Atomic      Atomic             Coordinates (Angstroms)
 Number     Number       Type             X           Y           Z
 ---------------------------------------------------------------------
      1          8           0        0.000000    0.000000    0.114872
      2          1           0        0.000000    0.770215   -0.467080
      3          1           0        0.000000   -0.770215   -0.467080
 ---------------------------------------------------------------------
                    Distance matrix (angstroms):
                    1          2          3
     1  O    0.000000
     2  H    0.965349   0.000000
     3  H    0.965349   1.540430   0.000000
 Stoichiometry    H2O
 Framework group  C2V[C2(O),SGV(H2)]
 Deg. of freedom     2
 Full point group                 C2V     NOp   4
 Largest Abelian subgroup         C2V     NOp   4
 Largest concise Abelian subgroup C2      NOp   2
                         Standard orientation:                         
 ---------------------------------------------------------------------
 Center     Atomic      Atomic             Coordinates (Angstroms)
 Number     Number       Type             X           Y           Z
 ---------------------------------------------------------------------
      1          8           0        0.000000    0.000000    0.116390
      2          1           0        0.000000    0.770215   -0.465562
      3          1           0        0.000000   -0.770215   -0.465562
 ---------------------------------------------------------------------
 Rotational constants (GHZ):    833.6292940    422.6474455    280.4567501
 Leave Link  202 at Wed Oct 17 12:53:30 2012, MaxMem=  268435456 cpu:       0.0
 (Enter /home/est863/Gaussian/g09/l301.exe)
 Standard basis: 6-31+G(d,p) (6D, 7F)
 Ernie: Thresh=  0.10000D-02 Tol=  0.10000D-05 Strict=F.
 There are    14 symmetry adapted basis functions of A1  symmetry.
 There are     2 symmetry adapted basis functions of A2  symmetry.
 There are     5 symmetry adapted basis functions of B1  symmetry.
 There are     8 symmetry adapted basis functions of B2  symmetry.
 Integral buffers will be    131072 words long.
 Raffenetti 2 integral format.
 Two-electron integral symmetry is turned on.
    29 basis functions,    46 primitive gaussians,    29 cartesian basis functions
     5 alpha electrons        5 beta electrons
       nuclear repulsion energy         9.1142738381 Hartrees.
 IExCor=  402 DFT=T Ex+Corr=B3LYP ExCW=0 ScaHFX=  0.200000
 ScaDFX=  0.800000  0.720000  1.000000  0.810000 ScalE2=  1.000000  1.000000
 IRadAn=      0 IRanWt=     -1 IRanGd=            0 ICorTp=0
 NAtoms=    3 NActive=    3 NUniq=    2 SFac= 1.69D+00 NAtFMM=   80 NAOKFM=F Big=F
 Leave Link  301 at Wed Oct 17 12:53:30 2012, MaxMem=  268435456 cpu:       0.0
 (Enter /home/est863/Gaussian/g09/l302.exe)
 NPDir=0 NMtPBC=     1 NCelOv=     1 NCel=       1 NClECP=     1 NCelD=      1
         NCelK=      1 NCelE2=     1 NClLst=     1 CellRange=     0.0.
 One-electron integrals computed using PRISM.
 One-electron integral symmetry used in STVInt
 NBasis=    29 RedAO= T  NBF=    14     2     5     8
 NBsUse=    29 1.00D-06 NBFU=    14     2     5     8
 Precomputing XC quadrature grid using
 IXCGrd= 2 IRadAn=           0 IRanWt=          -1 IRanGd=           0 AccXCQ= 1.00D-10.
 NRdTot=     187 NPtTot=       23652 NUsed=       25013 NTot=       25045
 NSgBfM=    29    29    29    29    29 NAtAll=     3     3.
 Leave Link  302 at Wed Oct 17 12:53:30 2012, MaxMem=  268435456 cpu:       0.2
 (Enter /home/est863/Gaussian/g09/l303.exe)
 DipDrv:  MaxL=1.
 Leave Link  303 at Wed Oct 17 12:53:30 2012, MaxMem=  268435456 cpu:       0.1
 (Enter /home/est863/Gaussian/g09/l401.exe)
 Initial guess read from the read-write file.
 B after Tr=     0.000000    0.000000    0.000000
         Rot=    1.000000    0.000000    0.000000    0.000000 Ang=   0.00 deg.
 Guess basis will be translated and rotated to current coordinates.
 Initial guess orbital symmetries:
       Occupied  (A1) (A1) (B2) (A1) (B1)
       Virtual   (A1) (B2) (B1) (A1) (B2) (A1) (B2) (A1) (B2) (B1)
                 (A1) (A1) (A2) (A1) (B1) (A1) (B2) (B2) (A2) (B1)
                 (A1) (A1) (B2) (A1)
 The electronic state of the initial guess is 1-A1.
 Leave Link  401 at Wed Oct 17 12:53:30 2012, MaxMem=  268435456 cpu:       0.4
 (Enter /home/est863/Gaussian/g09/l502.exe)
 Closed shell SCF:
 Requested convergence on RMS density matrix=1.00D-08 within 128 cycles.
 Requested convergence on MAX density matrix=1.00D-06.
 Requested convergence on             energy=1.00D-06.
 No special actions if energy rises.
 Using DIIS extrapolation, IDIIS=  1040.
 Integral symmetry usage will be decided dynamically.
        24973 words used for storage of precomputed grid.
 Keep R1 ints in memory in canonical form, NReq=999482.
 IEnd=       46098 IEndB=       46098 NGot=   268435456 MDV=   268312011
 LenX=   268312011 LenY=   268310729
 Symmetry not used in FoFDir.
 MinBra= 0 MaxBra= 2 Meth= 1.
 IRaf=       0 NMat=   1 IRICut=       1 DoRegI=T DoRafI=F ISym2E= 0 JSym2E=0.

 Cycle   1  Pass 1  IDiag  1:
 E= -76.4340359398587    
 DIIS: error= 7.37D-04 at cycle   1 NSaved=   1.
 NSaved= 1 IEnMin= 1 EnMin= -76.4340359398587     IErMin= 1 ErrMin= 7.37D-04
 ErrMax= 7.37D-04 EMaxC= 1.00D-01 BMatC= 1.17D-05 BMatP= 1.17D-05
 IDIUse=3 WtCom= 9.93D-01 WtEn= 7.37D-03
 Coeff-Com:  0.100D+01
 Coeff-En:   0.100D+01
 Coeff:      0.100D+01
 Gap=     0.346 Goal=   None    Shift=    0.000
 RMSDP=1.51D-04 MaxDP=9.25D-04              OVMax= 1.80D-03

 Cycle   2  Pass 1  IDiag  1:
 E= -76.4340450669624     Delta-E=       -0.000009127104 Rises=F Damp=F
 DIIS: error= 3.86D-04 at cycle   2 NSaved=   2.
 NSaved= 2 IEnMin= 2 EnMin= -76.4340450669624     IErMin= 2 ErrMin= 3.86D-04
 ErrMax= 3.86D-04 EMaxC= 1.00D-01 BMatC= 2.96D-06 BMatP= 1.17D-05
 IDIUse=3 WtCom= 9.96D-01 WtEn= 3.86D-03
 Coeff-Com:  0.261D+00 0.739D+00
 Coeff-En:   0.000D+00 0.100D+01
 Coeff:      0.260D+00 0.740D+00
 Gap=     0.347 Goal=   None    Shift=    0.000
 RMSDP=6.12D-05 MaxDP=7.51D-04 DE=-9.13D-06 OVMax= 8.52D-04

 Cycle   3  Pass 1  IDiag  1:
 E= -76.4340454907197     Delta-E=       -0.000000423757 Rises=F Damp=F
 DIIS: error= 3.32D-04 at cycle   3 NSaved=   3.
 NSaved= 3 IEnMin= 3 EnMin= -76.4340454907197     IErMin= 3 ErrMin= 3.32D-04
 ErrMax= 3.32D-04 EMaxC= 1.00D-01 BMatC= 2.45D-06 BMatP= 2.96D-06
 IDIUse=3 WtCom= 9.97D-01 WtEn= 3.32D-03
 Coeff-Com:  0.120D-01 0.474D+00 0.514D+00
 Coeff-En:   0.000D+00 0.455D+00 0.545D+00
 Coeff:      0.119D-01 0.474D+00 0.514D+00
 Gap=     0.346 Goal=   None    Shift=    0.000
 RMSDP=2.85D-05 MaxDP=3.35D-04 DE=-4.24D-07 OVMax= 3.96D-04

 Cycle   4  Pass 1  IDiag  1:
 E= -76.4340472363236     Delta-E=       -0.000001745604 Rises=F Damp=F
 DIIS: error= 1.50D-05 at cycle   4 NSaved=   4.
 NSaved= 4 IEnMin= 4 EnMin= -76.4340472363236     IErMin= 4 ErrMin= 1.50D-05
 ErrMax= 1.50D-05 EMaxC= 1.00D-01 BMatC= 4.49D-09 BMatP= 2.45D-06
 IDIUse=1 WtCom= 1.00D+00 WtEn= 0.00D+00
 Coeff-Com: -0.393D-02 0.947D-01 0.118D+00 0.791D+00
 Coeff:     -0.393D-02 0.947D-01 0.118D+00 0.791D+00
 Gap=     0.346 Goal=   None    Shift=    0.000
 RMSDP=1.74D-06 MaxDP=1.06D-05 DE=-1.75D-06 OVMax= 1.93D-05

 Cycle   5  Pass 1  IDiag  1:
 E= -76.4340472398199     Delta-E=       -0.000000003496 Rises=F Damp=F
 DIIS: error= 8.19D-07 at cycle   5 NSaved=   5.
 NSaved= 5 IEnMin= 5 EnMin= -76.4340472398199     IErMin= 5 ErrMin= 8.19D-07
 ErrMax= 8.19D-07 EMaxC= 1.00D-01 BMatC= 2.30D-11 BMatP= 4.49D-09
 IDIUse=1 WtCom= 1.00D+00 WtEn= 0.00D+00
 Coeff-Com: -0.389D-03-0.131D-02-0.201D-02 0.498D-01 0.954D+00
 Coeff:     -0.389D-03-0.131D-02-0.201D-02 0.498D-01 0.954D+00
 Gap=     0.346 Goal=   None    Shift=    0.000
 RMSDP=2.32D-07 MaxDP=2.25D-06 DE=-3.50D-09 OVMax= 3.10D-06

 Cycle   6  Pass 1  IDiag  1:
 E= -76.4340472398441     Delta-E=       -0.000000000024 Rises=F Damp=F
 DIIS: error= 8.31D-08 at cycle   6 NSaved=   6.
 NSaved= 6 IEnMin= 6 EnMin= -76.4340472398441     IErMin= 6 ErrMin= 8.31D-08
 ErrMax= 8.31D-08 EMaxC= 1.00D-01 BMatC= 6.39D-14 BMatP= 2.30D-11
 IDIUse=1 WtCom= 1.00D+00 WtEn= 0.00D+00
 Coeff-Com:  0.329D-04-0.433D-03-0.419D-03-0.596D-02-0.410D-01 0.105D+01
 Coeff:      0.329D-04-0.433D-03-0.419D-03-0.596D-02-0.410D-01 0.105D+01
 Gap=     0.346 Goal=   None    Shift=    0.000
 RMSDP=2.50D-08 MaxDP=2.55D-07 DE=-2.42D-11 OVMax= 2.67D-07

 Cycle   7  Pass 1  IDiag  1:
 E= -76.4340472398442     Delta-E=        0.000000000000 Rises=F Damp=F
 DIIS: error= 3.70D-09 at cycle   7 NSaved=   7.
 NSaved= 7 IEnMin= 7 EnMin= -76.4340472398442     IErMin= 7 ErrMin= 3.70D-09
 ErrMax= 3.70D-09 EMaxC= 1.00D-01 BMatC= 3.66D-16 BMatP= 6.39D-14
 IDIUse=1 WtCom= 1.00D+00 WtEn= 0.00D+00
 Coeff-Com:  0.969D-06 0.222D-04 0.181D-04-0.233D-03-0.398D-02-0.250D-01
 Coeff-Com:  0.103D+01
 Coeff:      0.969D-06 0.222D-04 0.181D-04-0.233D-03-0.398D-02-0.250D-01
 Coeff:      0.103D+01
 Gap=     0.346 Goal=   None    Shift=    0.000
 RMSDP=1.13D-09 MaxDP=1.33D-08 DE=-9.95D-14 OVMax= 1.97D-08

 SCF Done:  E(RB3LYP) =  -76.4340472398     A.U. after    7 cycles
             Convg  =    0.1131D-08             -V/T =  2.0093
 KE= 7.573136361840D+01 PE=-1.985221371846D+02 EE= 3.724245248830D+01
 Leave Link  502 at Wed Oct 17 12:53:31 2012, MaxMem=  268435456 cpu:       0.3
 (Enter /home/est863/Gaussian/g09/l701.exe)
 Compute integral first derivatives.
 ... and contract with generalized density number  0.
 Leave Link  701 at Wed Oct 17 12:53:31 2012, MaxMem=  268435456 cpu:       0.3
 (Enter /home/est863/Gaussian/g09/l702.exe)
 L702 exits ... SP integral derivatives will be done elsewhere.
 Leave Link  702 at Wed Oct 17 12:53:31 2012, MaxMem=  268435456 cpu:       0.0
 (Enter /home/est863/Gaussian/g09/l703.exe)
 Compute integral first derivatives, UseDBF=F ICtDFT=           0.
 Integral derivatives from FoFDir, PRISM(SPDF).
 Calling FoFJK, ICntrl=      2127 FMM=F ISym2X=1 I1Cent= 0 IOpClX= 0 NMat=1 NMatS=1 NMatT=0.
 FoFCou: FMM=F IPFlag=           0 FMFlag=      100000 FMFlg1=         800
         NFxFlg=           0 DoJE=F BraDBF=F KetDBF=F FulRan=T
         Omega=  0.000000  0.000000  1.000000  0.000000  0.000000 ICntrl=    2127 IOpCl=  0
         NMat0=    1 NMatS0=    1 NMatT0=    0 NMatD0=    1 NMtDS0=    0 NMtDT0=    0
         I1Cent=           0 NGrid=           0.
 Petite list used in FoFCou.
 Leave Link  703 at Wed Oct 17 12:53:31 2012, MaxMem=  268435456 cpu:       0.3
 (Enter /home/est863/Gaussian/g09/l716.exe)
 Dipole        =-5.62355631D-17 0.00000000D+00-8.62976306D-01
 ***** Axes restored to original set *****
 -------------------------------------------------------------------
 Center     Atomic                   Forces (Hartrees/Bohr)
 Number     Number              X              Y              Z
 -------------------------------------------------------------------
      1        8           0.000000000    0.000000000   -0.000113501
      2        1           0.000000000   -0.000360222    0.000056750
      3        1           0.000000000    0.000360222    0.000056750
 -------------------------------------------------------------------
 Cartesian Forces:  Max     0.000360222 RMS     0.000176019
 Leave Link  716 at Wed Oct 17 12:53:31 2012, MaxMem=  268435456 cpu:       0.0
 (Enter /home/est863/Gaussian/g09/l103.exe)

 GradGradGradGradGradGradGradGradGradGradGradGradGradGradGradGradGradGrad
 Berny optimization.
 Using GEDIIS/GDIIS optimizer.
 Internal  Forces:  Max     0.000321619 RMS     0.000318951
 Search for a local minimum.
 Step number   2 out of a maximum of   20
 All quantities printed in internal units (Hartrees-Bohrs-Radians)
 RMS Force = .31895D-03 SwitMx=.10000D-02 MixMth= 2
 Mixed Optimization -- En-DIIS/RFO-DIIS
 Update second derivatives using D2CorX and points    1    2
 DE= -3.34D-05 DEPred=-3.78D-05 R= 8.84D-01
 SS=  1.41D+00  RLast= 1.65D-02 DXNew= 5.0454D-01 4.9571D-02
 Trust test= 8.84D-01 RLast= 1.65D-02 DXMaxT set to 3.00D-01
 The second derivative matrix:
                          R1        R2        A1
           R1           0.56222
           R2           0.01170   0.56222
           A1           0.01248   0.01248   0.17121
 Use linear search instead of GDIIS.
     Eigenvalues ---    0.17044   0.55053   0.57469
 RFO step:  Lambda=-3.94824689D-08 EMin= 1.70440951D-01
 Quartic linear search produced a step of -0.10149.
 Iteration  1 RMS(Cart)=  0.00123087 RMS(Int)=  0.00000066
 Iteration  2 RMS(Cart)=  0.00000046 RMS(Int)=  0.00000000
 ClnCor:  largest displacement from symmetrization is 2.48D-16 for atom     3.
 Variable       Old X    -DE/DX   Delta X   Delta X   Delta X     New X
                                 (Linear)    (Quad)   (Total)
    R1        1.82425  -0.00032  -0.00065   0.00012  -0.00053   1.82372
    R2        1.82425  -0.00032  -0.00065   0.00012  -0.00053   1.82372
    A1        1.84748  -0.00031  -0.00140  -0.00038  -0.00178   1.84570
         Item               Value     Threshold  Converged?
 Maximum Force            0.000322     0.000450     YES
 RMS     Force            0.000319     0.000300     NO 
 Maximum Displacement     0.001398     0.001800     YES
 RMS     Displacement     0.001231     0.001200     NO 
 Predicted change in Energy=-4.430768D-07
 GradGradGradGradGradGradGradGradGradGradGradGradGradGradGradGradGradGrad

 Leave Link  103 at Wed Oct 17 12:53:31 2012, MaxMem=  268435456 cpu:       0.0
 (Enter /home/est863/Gaussian/g09/l202.exe)
                          Input orientation:                          
 ---------------------------------------------------------------------
 Center     Atomic      Atomic             Coordinates (Angstroms)
 Number     Number       Type             X           Y           Z
 ---------------------------------------------------------------------
      1          8           0        0.000000    0.000000    0.115217
      2          1           0        0.000000    0.769475   -0.467253
      3          1           0        0.000000   -0.769475   -0.467253
 ---------------------------------------------------------------------
                    Distance matrix (angstroms):
                    1          2          3
     1  O    0.000000
     2  H    0.965071   0.000000
     3  H    0.965071   1.538950   0.000000
 Stoichiometry    H2O
 Framework group  C2V[C2(O),SGV(H2)]
 Deg. of freedom     2
 Full point group                 C2V     NOp   4
 Largest Abelian subgroup         C2V     NOp   4
 Largest concise Abelian subgroup C2      NOp   2
                         Standard orientation:                         
 ---------------------------------------------------------------------
 Center     Atomic      Atomic             Coordinates (Angstroms)
 Number     Number       Type             X           Y           Z
 ---------------------------------------------------------------------
      1          8           0        0.000000    0.000000    0.116494
      2          1           0        0.000000    0.769475   -0.465976
      3          1           0        0.000000   -0.769475   -0.465976
 ---------------------------------------------------------------------
 Rotational constants (GHZ):    832.1487524    423.4604963    280.6463269
 Leave Link  202 at Wed Oct 17 12:53:31 2012, MaxMem=  268435456 cpu:       0.0
 (Enter /home/est863/Gaussian/g09/l301.exe)
 Standard basis: 6-31+G(d,p) (6D, 7F)
 Ernie: Thresh=  0.10000D-02 Tol=  0.10000D-05 Strict=F.
 There are    14 symmetry adapted basis functions of A1  symmetry.
 There are     2 symmetry adapted basis functions of A2  symmetry.
 There are     5 symmetry adapted basis functions of B1  symmetry.
 There are     8 symmetry adapted basis functions of B2  symmetry.
 Integral buffers will be    131072 words long.
 Raffenetti 2 integral format.
 Two-electron integral symmetry is turned on.
    29 basis functions,    46 primitive gaussians,    29 cartesian basis functions
     5 alpha electrons        5 beta electrons
       nuclear repulsion energy         9.1171296960 Hartrees.
 IExCor=  402 DFT=T Ex+Corr=B3LYP ExCW=0 ScaHFX=  0.200000
 ScaDFX=  0.800000  0.720000  1.000000  0.810000 ScalE2=  1.000000  1.000000
 IRadAn=      0 IRanWt=     -1 IRanGd=            0 ICorTp=0
 NAtoms=    3 NActive=    3 NUniq=    2 SFac= 1.69D+00 NAtFMM=   80 NAOKFM=F Big=F
 Leave Link  301 at Wed Oct 17 12:53:31 2012, MaxMem=  268435456 cpu:       0.0
 (Enter /home/est863/Gaussian/g09/l302.exe)
 NPDir=0 NMtPBC=     1 NCelOv=     1 NCel=       1 NClECP=     1 NCelD=      1
         NCelK=      1 NCelE2=     1 NClLst=     1 CellRange=     0.0.
 One-electron integrals computed using PRISM.
 One-electron integral symmetry used in STVInt
 NBasis=    29 RedAO= T  NBF=    14     2     5     8
 NBsUse=    29 1.00D-06 NBFU=    14     2     5     8
 Precomputing XC quadrature grid using
 IXCGrd= 2 IRadAn=           0 IRanWt=          -1 IRanGd=           0 AccXCQ= 1.00D-10.
 NRdTot=     187 NPtTot=       23652 NUsed=       25013 NTot=       25045
 NSgBfM=    29    29    29    29    29 NAtAll=     3     3.
 Leave Link  302 at Wed Oct 17 12:53:32 2012, MaxMem=  268435456 cpu:       0.2
 (Enter /home/est863/Gaussian/g09/l303.exe)
 DipDrv:  MaxL=1.
 Leave Link  303 at Wed Oct 17 12:53:32 2012, MaxMem=  268435456 cpu:       0.2
 (Enter /home/est863/Gaussian/g09/l401.exe)
 Initial guess read from the read-write file.
 B after Tr=     0.000000    0.000000    0.000000
         Rot=    1.000000    0.000000    0.000000    0.000000 Ang=   0.00 deg.
 Guess basis will be translated and rotated to current coordinates.
 Initial guess orbital symmetries:
       Occupied  (A1) (A1) (B2) (A1) (B1)
       Virtual   (A1) (B2) (A1) (B1) (B2) (A1) (B2) (A1) (B2) (B1)
                 (A1) (A1) (A2) (A1) (B1) (A1) (B2) (B2) (A2) (B1)
                 (A1) (A1) (B2) (A1)
 The electronic state of the initial guess is 1-A1.
 Leave Link  401 at Wed Oct 17 12:53:32 2012, MaxMem=  268435456 cpu:       0.4
 (Enter /home/est863/Gaussian/g09/l502.exe)
 Closed shell SCF:
 Requested convergence on RMS density matrix=1.00D-08 within 128 cycles.
 Requested convergence on MAX density matrix=1.00D-06.
 Requested convergence on             energy=1.00D-06.
 No special actions if energy rises.
 Using DIIS extrapolation, IDIIS=  1040.
 Integral symmetry usage will be decided dynamically.
        24973 words used for storage of precomputed grid.
 Keep R1 ints in memory in canonical form, NReq=999482.
 IEnd=       46098 IEndB=       46098 NGot=   268435456 MDV=   268312011
 LenX=   268312011 LenY=   268310729
 Symmetry not used in FoFDir.
 MinBra= 0 MaxBra= 2 Meth= 1.
 IRaf=       0 NMat=   1 IRICut=       1 DoRegI=T DoRafI=F ISym2E= 0 JSym2E=0.

 Cycle   1  Pass 1  IDiag  1:
 E= -76.4340475545312    
 DIIS: error= 8.81D-05 at cycle   1 NSaved=   1.
 NSaved= 1 IEnMin= 1 EnMin= -76.4340475545312     IErMin= 1 ErrMin= 8.81D-05
 ErrMax= 8.81D-05 EMaxC= 1.00D-01 BMatC= 1.33D-07 BMatP= 1.33D-07
 IDIUse=1 WtCom= 1.00D+00 WtEn= 0.00D+00
 Coeff-Com:  0.100D+01
 Coeff:      0.100D+01
 Gap=     0.346 Goal=   None    Shift=    0.000
 RMSDP=1.83D-05 MaxDP=1.08D-04              OVMax= 1.99D-04

 Cycle   2  Pass 1  IDiag  1:
 E= -76.4340476764741     Delta-E=       -0.000000121943 Rises=F Damp=F
 DIIS: error= 3.06D-05 at cycle   2 NSaved=   2.
 NSaved= 2 IEnMin= 2 EnMin= -76.4340476764741     IErMin= 2 ErrMin= 3.06D-05
 ErrMax= 3.06D-05 EMaxC= 1.00D-01 BMatC= 1.88D-08 BMatP= 1.33D-07
 IDIUse=1 WtCom= 1.00D+00 WtEn= 0.00D+00
 Coeff-Com:  0.173D+00 0.827D+00
 Coeff:      0.173D+00 0.827D+00
 Gap=     0.346 Goal=   None    Shift=    0.000
 RMSDP=5.59D-06 MaxDP=6.67D-05 DE=-1.22D-07 OVMax= 7.56D-05

 Cycle   3  Pass 1  IDiag  1:
 E= -76.4340476736612     Delta-E=        0.000000002813 Rises=F Damp=F
 DIIS: error= 3.29D-05 at cycle   3 NSaved=   3.
 NSaved= 3 IEnMin= 2 EnMin= -76.4340476764741     IErMin= 2 ErrMin= 3.06D-05
 ErrMax= 3.29D-05 EMaxC= 1.00D-01 BMatC= 2.36D-08 BMatP= 1.88D-08
 IDIUse=1 WtCom= 1.00D+00 WtEn= 0.00D+00
 Coeff-Com:  0.422D-02 0.528D+00 0.468D+00
 Coeff:      0.422D-02 0.528D+00 0.468D+00
 Gap=     0.346 Goal=   None    Shift=    0.000
 RMSDP=2.79D-06 MaxDP=3.33D-05 DE= 2.81D-09 OVMax= 3.82D-05

 Cycle   4  Pass 1  IDiag  1:
 E= -76.4340476904745     Delta-E=       -0.000000016813 Rises=F Damp=F
 DIIS: error= 1.46D-06 at cycle   4 NSaved=   4.
 NSaved= 4 IEnMin= 4 EnMin= -76.4340476904745     IErMin= 4 ErrMin= 1.46D-06
 ErrMax= 1.46D-06 EMaxC= 1.00D-01 BMatC= 4.52D-11 BMatP= 1.88D-08
 IDIUse=1 WtCom= 1.00D+00 WtEn= 0.00D+00
 Coeff-Com: -0.458D-02 0.104D+00 0.108D+00 0.792D+00
 Coeff:     -0.458D-02 0.104D+00 0.108D+00 0.792D+00
 Gap=     0.346 Goal=   None    Shift=    0.000
 RMSDP=1.88D-07 MaxDP=1.13D-06 DE=-1.68D-08 OVMax= 1.94D-06

 Cycle   5  Pass 1  IDiag  1:
 E= -76.4340476905096     Delta-E=       -0.000000000035 Rises=F Damp=F
 DIIS: error= 9.77D-08 at cycle   5 NSaved=   5.
 NSaved= 5 IEnMin= 5 EnMin= -76.4340476905096     IErMin= 5 ErrMin= 9.77D-08
 ErrMax= 9.77D-08 EMaxC= 1.00D-01 BMatC= 2.87D-13 BMatP= 4.52D-11
 IDIUse=1 WtCom= 1.00D+00 WtEn= 0.00D+00
 Coeff-Com: -0.365D-03-0.980D-03-0.116D-02 0.647D-01 0.938D+00
 Coeff:     -0.365D-03-0.980D-03-0.116D-02 0.647D-01 0.938D+00
 Gap=     0.346 Goal=   None    Shift=    0.000
 RMSDP=2.54D-08 MaxDP=2.20D-07 DE=-3.51D-11 OVMax= 2.84D-07

 Cycle   6  Pass 1  IDiag  1:
 E= -76.4340476905099     Delta-E=        0.000000000000 Rises=F Damp=F
 DIIS: error= 5.48D-09 at cycle   6 NSaved=   6.
 NSaved= 6 IEnMin= 6 EnMin= -76.4340476905099     IErMin= 6 ErrMin= 5.48D-09
 ErrMax= 5.48D-09 EMaxC= 1.00D-01 BMatC= 3.66D-16 BMatP= 2.87D-13
 IDIUse=1 WtCom= 1.00D+00 WtEn= 0.00D+00
 Coeff-Com:  0.271D-04-0.471D-03-0.444D-03-0.521D-02-0.263D-01 0.103D+01
 Coeff:      0.271D-04-0.471D-03-0.444D-03-0.521D-02-0.263D-01 0.103D+01
 Gap=     0.346 Goal=   None    Shift=    0.000
 RMSDP=2.61D-09 MaxDP=2.48D-08 DE=-2.84D-13 OVMax= 2.12D-08

 SCF Done:  E(RB3LYP) =  -76.4340476905     A.U. after    6 cycles
             Convg  =    0.2610D-08             -V/T =  2.0093
 KE= 7.573258326492D+01 PE=-1.985281740604D+02 EE= 3.724441340897D+01
 Leave Link  502 at Wed Oct 17 12:53:33 2012, MaxMem=  268435456 cpu:       0.3
 (Enter /home/est863/Gaussian/g09/l701.exe)
 Compute integral first derivatives.
 ... and contract with generalized density number  0.
 Leave Link  701 at Wed Oct 17 12:53:33 2012, MaxMem=  268435456 cpu:       0.3
 (Enter /home/est863/Gaussian/g09/l702.exe)
 L702 exits ... SP integral derivatives will be done elsewhere.
 Leave Link  702 at Wed Oct 17 12:53:33 2012, MaxMem=  268435456 cpu:       0.0
 (Enter /home/est863/Gaussian/g09/l703.exe)
 Compute integral first derivatives, UseDBF=F ICtDFT=           0.
 Integral derivatives from FoFDir, PRISM(SPDF).
 Calling FoFJK, ICntrl=      2127 FMM=F ISym2X=1 I1Cent= 0 IOpClX= 0 NMat=1 NMatS=1 NMatT=0.
 FoFCou: FMM=F IPFlag=           0 FMFlag=      100000 FMFlg1=         800
         NFxFlg=           0 DoJE=F BraDBF=F KetDBF=F FulRan=T
         Omega=  0.000000  0.000000  1.000000  0.000000  0.000000 ICntrl=    2127 IOpCl=  0
         NMat0=    1 NMatS0=    1 NMatT0=    0 NMatD0=    1 NMtDS0=    0 NMtDT0=    0
         I1Cent=           0 NGrid=           0.
 Petite list used in FoFCou.
 Leave Link  703 at Wed Oct 17 12:53:33 2012, MaxMem=  268435456 cpu:       0.4
 (Enter /home/est863/Gaussian/g09/l716.exe)
 Dipole        =-5.61568823D-17 0.00000000D+00-8.63583104D-01
 ***** Axes restored to original set *****
 -------------------------------------------------------------------
 Center     Atomic                   Forces (Hartrees/Bohr)
 Number     Number              X              Y              Z
 -------------------------------------------------------------------
      1        8           0.000000000    0.000000000    0.000018591
      2        1           0.000000000    0.000004653   -0.000009295
      3        1           0.000000000   -0.000004653   -0.000009295
 -------------------------------------------------------------------
 Cartesian Forces:  Max     0.000018591 RMS     0.000007900
 Leave Link  716 at Wed Oct 17 12:53:33 2012, MaxMem=  268435456 cpu:       0.0
 (Enter /home/est863/Gaussian/g09/l103.exe)

 GradGradGradGradGradGradGradGradGradGradGradGradGradGradGradGradGradGrad
 Berny optimization.
 Using GEDIIS/GDIIS optimizer.
 Internal  Forces:  Max     0.000009320 RMS     0.000009022
 Search for a local minimum.
 Step number   3 out of a maximum of   20
 All quantities printed in internal units (Hartrees-Bohrs-Radians)
 RMS Force = .90223D-05 SwitMx=.10000D-02 MixMth= 2
 Mixed Optimization -- En-DIIS/RFO-DIIS
 Swaping is turned off.
 Update second derivatives using D2CorX and points    1    2    3
 DE= -4.51D-07 DEPred=-4.43D-07 R= 1.02D+00
 Trust test= 1.02D+00 RLast= 1.93D-03 DXMaxT set to 3.00D-01
 The second derivative matrix:
                          R1        R2        A1
           R1           0.56924
           R2           0.01872   0.56924
           A1           0.01246   0.01246   0.16410
     Eigenvalues ---    0.16337   0.55053   0.58869
 En-DIIS/RFO-DIIS IScMMF=        0 using points:     3    2
 RFO step:  Lambda= 0.00000000D+00.
 DIIS coeffs:      1.00579     -0.00579
 Iteration  1 RMS(Cart)=  0.00002668 RMS(Int)=  0.00000000
 Iteration  2 RMS(Cart)=  0.00000000 RMS(Int)=  0.00000000
 ClnCor:  largest displacement from symmetrization is 5.55D-16 for atom     3.
 Variable       Old X    -DE/DX   Delta X   Delta X   Delta X     New X
                                  (DIIS)     (GDIIS)  (Total)
    R1        1.82372   0.00001   0.00000   0.00002   0.00002   1.82374
    R2        1.82372   0.00001   0.00000   0.00002   0.00002   1.82374
    A1        1.84570  -0.00001  -0.00001  -0.00004  -0.00005   1.84564
         Item               Value     Threshold  Converged?
 Maximum Force            0.000009     0.000450     YES
 RMS     Force            0.000009     0.000300     YES
 Maximum Displacement     0.000033     0.001800     YES
 RMS     Displacement     0.000027     0.001200     YES
 Predicted change in Energy=-3.839274D-10
 Optimization completed.
    -- Stationary point found.
                           ----------------------------
                           !   Optimized Parameters   !
                           ! (Angstroms and Degrees)  !
 --------------------------                            --------------------------
 ! Name  Definition              Value          Derivative Info.                !
 --------------------------------------------------------------------------------
 ! R1    R(1,2)                  0.9651         -DE/DX =    0.0                 !
 ! R2    R(1,3)                  0.9651         -DE/DX =    0.0                 !
 ! A1    A(2,1,3)              105.7507         -DE/DX =    0.0                 !
 --------------------------------------------------------------------------------
 GradGradGradGradGradGradGradGradGradGradGradGradGradGradGradGradGradGrad

 Largest change from initial coordinates is atom    2       0.006 Angstoms.
 Leave Link  103 at Wed Oct 17 12:53:33 2012, MaxMem=  268435456 cpu:       0.0
 (Enter /home/est863/Gaussian/g09/l202.exe)
                          Input orientation:                          
 ---------------------------------------------------------------------
 Center     Atomic      Atomic             Coordinates (Angstroms)
 Number     Number       Type             X           Y           Z
 ---------------------------------------------------------------------
      1          8           0        0.000000    0.000000    0.115217
      2          1           0        0.000000    0.769475   -0.467253
      3          1           0        0.000000   -0.769475   -0.467253
 ---------------------------------------------------------------------
                    Distance matrix (angstroms):
                    1          2          3
     1  O    0.000000
     2  H    0.965071   0.000000
     3  H    0.965071   1.538950   0.000000
 Stoichiometry    H2O
 Framework group  C2V[C2(O),SGV(H2)]
 Deg. of freedom     2
 Full point group                 C2V     NOp   4
 Largest Abelian subgroup         C2V     NOp   4
 Largest concise Abelian subgroup C2      NOp   2
                         Standard orientation:                         
 ---------------------------------------------------------------------
 Center     Atomic      Atomic             Coordinates (Angstroms)
 Number     Number       Type             X           Y           Z
 ---------------------------------------------------------------------
      1          8           0        0.000000    0.000000    0.116494
      2          1           0        0.000000    0.769475   -0.465976
      3          1           0        0.000000   -0.769475   -0.465976
 ---------------------------------------------------------------------
 Rotational constants (GHZ):    832.1487524    423.4604963    280.6463269
 Leave Link  202 at Wed Oct 17 12:53:33 2012, MaxMem=  268435456 cpu:       0.0
 (Enter /home/est863/Gaussian/g09/l601.exe)
 Copying SCF densities to generalized density rwf, IOpCl= 0 IROHF=0.

 **********************************************************************

            Population analysis using the SCF density.

 **********************************************************************

 Orbital symmetries:
       Occupied  (A1) (A1) (B2) (A1) (B1)
       Virtual   (A1) (B2) (B1) (A1) (B2) (A1) (B2) (A1) (B2) (B1)
                 (A1) (A1) (A2) (A1) (B1) (A1) (B2) (B2) (A2) (B1)
                 (A1) (A1) (B2) (A1)
 The electronic state is 1-A1.
 Alpha  occ. eigenvalues --  -19.16961  -1.02230  -0.54232  -0.39423  -0.32104
 Alpha virt. eigenvalues --    0.02515   0.11450   0.15506   0.15506   0.20614
 Alpha virt. eigenvalues --    0.24194   0.90043   0.98867   1.08841   1.11265
 Alpha virt. eigenvalues --    1.12670   1.23128   1.50293   1.53637   1.63048
 Alpha virt. eigenvalues --    2.23022   2.24146   2.50090   2.63278   2.64577
 Alpha virt. eigenvalues --    3.02416   3.31869   3.51003   3.92167
          Condensed to atoms (all electrons):
              1          2          3
     1  O    8.147379   0.282273   0.282273
     2  H    0.282273   0.385846  -0.024081
     3  H    0.282273  -0.024081   0.385846
 Mulliken atomic charges:
              1
     1  O   -0.711925
     2  H    0.355962
     3  H    0.355962
 Sum of Mulliken atomic charges =   0.00000
 Mulliken charges with hydrogens summed into heavy atoms:
              1
     1  O    0.000000
 Sum of Mulliken charges with hydrogens summed into heavy atoms =   0.00000
 Electronic spatial extent (au):  <R**2>=             20.1427
 Charge=              0.0000 electrons
 Dipole moment (field-independent basis, Debye):
    X=              0.0000    Y=              0.0000    Z=             -2.1950  Tot=              2.1950
 Quadrupole moment (field-independent basis, Debye-Ang):
   XX=             -7.8841   YY=             -4.3755   ZZ=             -6.5377
   XY=              0.0000   XZ=              0.0000   YZ=              0.0000
 Traceless Quadrupole moment (field-independent basis, Debye-Ang):
   XX=             -1.6184   YY=              1.8903   ZZ=             -0.2720
   XY=              0.0000   XZ=              0.0000   YZ=              0.0000
 Octapole moment (field-independent basis, Debye-Ang**2):
  XXX=              0.0000  YYY=              0.0000  ZZZ=             -1.6087  XYY=              0.0000
  XXY=              0.0000  XXZ=             -0.4780  XZZ=              0.0000  YZZ=              0.0000
  YYZ=             -1.4078  XYZ=              0.0000
 Hexadecapole moment (field-independent basis, Debye-Ang**3):
 XXXX=             -7.9584 YYYY=             -6.5055 ZZZZ=             -8.1557 XXXY=              0.0000
 XXXZ=              0.0000 YYYX=              0.0000 YYYZ=              0.0000 ZZZX=              0.0000
 ZZZY=              0.0000 XXYY=             -2.6993 XXZZ=             -2.7379 YYZZ=             -2.1279
 XXYZ=              0.0000 YYXZ=              0.0000 ZZXY=              0.0000
 N-N= 9.117129696042D+00 E-N=-1.985281740052D+02  KE= 7.573258326492D+01
 Symmetry A1   KE= 6.765762088171D+01
 Symmetry A2   KE= 1.894046927299D-36
 Symmetry B1   KE= 4.464305055416D+00
 Symmetry B2   KE= 3.610657327790D+00
 No NMR shielding tensors so no spin-rotation constants.
 Leave Link  601 at Wed Oct 17 12:53:34 2012, MaxMem=  268435456 cpu:       0.3
 (Enter /home/est863/Gaussian/g09/l9999.exe)
 1\1\GINC-LOCALHOST\FOpt\RB3LYP\6-31+G(d,p)\H2O1\EST863\17-Oct-2012\0\\
 #p rb3lyp/6-31+g(d,p) opt freq polar\\Title Card Required\\0,1\O,0.,0.
 ,0.1152167184\H,0.,0.769475112,-0.4672528592\H,0.,-0.769475112,-0.4672
 528592\\Version=EM64L-G09RevA.01\State=1-A1\HF=-76.4340477\RMSD=2.610e
 -09\RMSF=7.900e-06\Dipole=0.,0.,-0.8635831\Quadrupole=-1.2032073,1.405
 4015,-0.2021943,0.,0.,0.\PG=C02V [C2(O1),SGV(H2)]\\@


            THE IRISH PIG
 'TWAS AN EVENING IN NOVEMBER,
 AS I VERY WELL REMEMBER
 I WAS STROLLING DOWN THE STREET IN DRUNKEN PRIDE,
 BUT MY KNEES WERE ALL A'FLUTTER
 SO I LANDED IN THE GUTTER,
 AND A PIG CAME UP AND LAY DOWN BY MY SIDE.

 YES, I LAY THERE IN THE GUTTER
 THINKING THOUGHTS I COULD NOT UTTER
 WHEN A COLLEEN PASSING BY DID SOFTLY SAY,
 'YE CAN TELL A MAN THAT BOOZES
 BY THE COMPANY THAT HE CHOOSES.' -
 AT THAT, THE PIG GOT UP AND WALKED AWAY!
     -- THE ECONOMIST, AUGUST 23, 1986
 Leave Link 9999 at Wed Oct 17 12:53:34 2012, MaxMem=  268435456 cpu:       0.0
 Job cpu time:  0 days  0 hours  0 minutes  6.2 seconds.
 File lengths (MBytes):  RWF=      5 Int=      0 D2E=      0 Chk=      1 Scr=      1
 Normal termination of Gaussian 09 at Wed Oct 17 12:53:34 2012.
 (Enter /home/est863/Gaussian/g09/l1.exe)
 Link1:  Proceeding to internal job step number  2.
 ----------------------------------------------------------------------
 #P Geom=AllCheck Guess=TCheck SCRF=Check GenChk RB3LYP/6-31+G(d,p) Fre
 q
 ----------------------------------------------------------------------
 1/10=4,29=7,30=1,38=1,40=1/1,3;
 2/12=2,40=1/2;
 3/5=1,6=6,7=111,11=2,14=-4,16=1,25=1,30=1,70=2,71=2,74=-5,116=1/1,2,3;
 4/5=101/1;
 5/5=2,98=1/2;
 8/6=4,10=90,11=11/1;
 11/6=1,8=1,9=11,15=111,16=1/1,2,10;
 10/6=1/2;
 6/7=2,8=2,9=2,10=2,18=1,28=1/1;
 7/8=1,10=1,25=1/1,2,3,16;
 1/10=4,30=1/3;
 99//99;
 Leave Link    1 at Wed Oct 17 12:53:34 2012, MaxMem=  268435456 cpu:       0.0
 (Enter /home/est863/Gaussian/g09/l101.exe)
 -------------------
 Title Card Required
 -------------------
 Redundant internal coordinates taken from checkpoint file:
 WATERopt.chk
 Charge =  0 Multiplicity = 1
 O,0,0.,0.,0.1152167184
 H,0,0.,0.769475112,-0.4672528592
 H,0,0.,-0.769475112,-0.4672528592
 Recover connectivity data from disk.
                    Isotopes and Nuclear Properties:
 (Nuclear quadrupole moments (NQMom) in fm**2, nuclear magnetic moments (NMagM)
  in nuclear magnetons)

  Atom         1           2           3
 IAtWgt=          16           1           1
 AtmWgt=  15.9949146   1.0078250   1.0078250
 NucSpn=           0           1           1
 AtZEff=  -5.6000000  -1.0000000  -1.0000000
 NQMom=    0.0000000   0.0000000   0.0000000
 NMagM=    0.0000000   2.7928460   2.7928460
 Leave Link  101 at Wed Oct 17 12:53:34 2012, MaxMem=  268435456 cpu:       0.1
 (Enter /home/est863/Gaussian/g09/l103.exe)

 GradGradGradGradGradGradGradGradGradGradGradGradGradGradGradGradGradGrad
 Berny optimization.
 Initialization pass.
                           ----------------------------
                           !    Initial Parameters    !
                           ! (Angstroms and Degrees)  !
 --------------------------                            --------------------------
 ! Name  Definition              Value          Derivative Info.                !
 --------------------------------------------------------------------------------
 ! R1    R(1,2)                  0.9651         calculate D2E/DX2 analytically  !
 ! R2    R(1,3)                  0.9651         calculate D2E/DX2 analytically  !
 ! A1    A(2,1,3)              105.7507         calculate D2E/DX2 analytically  !
 --------------------------------------------------------------------------------
 Trust Radius=3.00D-01 FncErr=1.00D-07 GrdErr=1.00D-07
 Number of steps in this run=   2 maximum allowed number of steps=   2.
 GradGradGradGradGradGradGradGradGradGradGradGradGradGradGradGradGradGrad

 Leave Link  103 at Wed Oct 17 12:53:34 2012, MaxMem=  268435456 cpu:       0.0
 (Enter /home/est863/Gaussian/g09/l202.exe)
                          Input orientation:                          
 ---------------------------------------------------------------------
 Center     Atomic      Atomic             Coordinates (Angstroms)
 Number     Number       Type             X           Y           Z
 ---------------------------------------------------------------------
      1          8           0        0.000000    0.000000    0.115217
      2          1           0        0.000000    0.769475   -0.467253
      3          1           0        0.000000   -0.769475   -0.467253
 ---------------------------------------------------------------------
                    Distance matrix (angstroms):
                    1          2          3
     1  O    0.000000
     2  H    0.965071   0.000000
     3  H    0.965071   1.538950   0.000000
 Stoichiometry    H2O
 Framework group  C2V[C2(O),SGV(H2)]
 Deg. of freedom     2
 Full point group                 C2V     NOp   4
 Largest Abelian subgroup         C2V     NOp   4
 Largest concise Abelian subgroup C2      NOp   2
                         Standard orientation:                         
 ---------------------------------------------------------------------
 Center     Atomic      Atomic             Coordinates (Angstroms)
 Number     Number       Type             X           Y           Z
 ---------------------------------------------------------------------
      1          8           0        0.000000    0.000000    0.116494
      2          1           0        0.000000    0.769475   -0.465976
      3          1           0        0.000000   -0.769475   -0.465976
 ---------------------------------------------------------------------
 Rotational constants (GHZ):    832.1487524    423.4604963    280.6463269
 Leave Link  202 at Wed Oct 17 12:53:34 2012, MaxMem=  268435456 cpu:       0.0
 (Enter /home/est863/Gaussian/g09/l301.exe)
 Standard basis: 6-31+G(d,p) (6D, 7F)
 Ernie: Thresh=  0.10000D-02 Tol=  0.10000D-05 Strict=F.
 There are    14 symmetry adapted basis functions of A1  symmetry.
 There are     2 symmetry adapted basis functions of A2  symmetry.
 There are     5 symmetry adapted basis functions of B1  symmetry.
 There are     8 symmetry adapted basis functions of B2  symmetry.
 Integral buffers will be    131072 words long.
 Raffenetti 2 integral format.
 Two-electron integral symmetry is turned on.
    29 basis functions,    46 primitive gaussians,    29 cartesian basis functions
     5 alpha electrons        5 beta electrons
       nuclear repulsion energy         9.1171296960 Hartrees.
 IExCor=  402 DFT=T Ex+Corr=B3LYP ExCW=0 ScaHFX=  0.200000
 ScaDFX=  0.800000  0.720000  1.000000  0.810000 ScalE2=  1.000000  1.000000
 IRadAn=      0 IRanWt=     -1 IRanGd=            0 ICorTp=0
 NAtoms=    3 NActive=    3 NUniq=    2 SFac= 1.69D+00 NAtFMM=   80 NAOKFM=F Big=F
 ------------------------------------------------------------------------------
 Polarizable Continuum Model (PCM)
 =================================
 Model                : PCM.
 Atomic radii         : UFF (Universal Force Field).
 Polarization charges : Total charges.
 Charge compensation  : None.
 Solution method      : Matrix inversion.
 Cavity type          : Scaled VdW (van der Waals Surface) (Alpha=1.100).
 Cavity algorithm     : GePol (No added spheres)
                        Default sphere list used, NSphG=    3.
                        Lebedev-Laikov grids with approx.  5.0 points / Ang**2.
                        Smoothing algorithm: Karplus/York (Gamma=1.0000).
                        Polarization charges: spherical gaussians, with
                                              point-specific exponents (IZeta= 3).
                        Self-potential: point-specific (ISelfS= 7).
                        Self-field    : sphere-specific E.n sum rule (ISelfD= 2).
 1st derivatives      : Analytical E(r).r(x)/FMM algorithm (CHGder, D1EAlg=3).
                        Cavity 1st derivative terms included.
 2nd derivatives      : Analytical E(r).r(xy)/FMM algorithm (CHGder, D2EAlg=3).
                        Cavity 2nd derivative terms included.
 Solvent              : Water, Eps=  78.355300 Eps(inf)=   1.777849
 ------------------------------------------------------------------------------
 Spheres list:
 ISph  on   Nord    Re0     Alpha      Xe            Ye            Ze
    1   O      1    1.750   1.100      0.000000      0.000000      0.116494
    2   H      2    1.443   1.100      0.000000      0.769475     -0.465976
    3   H      3    1.443   1.100      0.000000     -0.769475     -0.465976
 ------------------------------------------------------------------------------
 GePol: Number of generator spheres                  =       3
 GePol: Total number of spheres                      =       3
 GePol: Number of exposed spheres                    =       3 (100.00%)
 GePol: Number of points                             =     388
 GePol: Average weight of points                     =       0.14
 GePol: Minimum weight of points                     =   0.94D-04
 GePol: Maximum weight of points                     =    0.20212
 GePol: Number of points with low weight             =       8
 GePol: Fraction of low-weight points (<1% of avg)   =       2.06%
 GePol: Cavity surface area                          =     55.718 Ang**2
 GePol: Cavity volume                                =     37.519 Ang**3
 Leave Link  301 at Wed Oct 17 12:53:34 2012, MaxMem=  268435456 cpu:       0.1
 (Enter /home/est863/Gaussian/g09/l302.exe)
 NPDir=0 NMtPBC=     1 NCelOv=     1 NCel=       1 NClECP=     1 NCelD=      1
         NCelK=      1 NCelE2=     1 NClLst=     1 CellRange=     0.0.
 One-electron integrals computed using PRISM.
 One-electron integral symmetry used in STVInt
 NBasis=    29 RedAO= T  NBF=    14     2     5     8
 NBsUse=    29 1.00D-06 NBFU=    14     2     5     8
 Precomputing XC quadrature grid using
 IXCGrd= 2 IRadAn=           0 IRanWt=          -1 IRanGd=           0 AccXCQ= 1.00D-10.
 NRdTot=     187 NPtTot=       23652 NUsed=       25013 NTot=       25045
 NSgBfM=    29    29    29    29    29 NAtAll=     3     3.
 Leave Link  302 at Wed Oct 17 12:53:34 2012, MaxMem=  268435456 cpu:       0.2
 (Enter /home/est863/Gaussian/g09/l303.exe)
 DipDrv:  MaxL=1.
 Leave Link  303 at Wed Oct 17 12:53:34 2012, MaxMem=  268435456 cpu:       0.0
 (Enter /home/est863/Gaussian/g09/l401.exe)
 Initial guess read from the checkpoint file:  WATERopt.chk
 B after Tr=     0.000000    0.000000    0.000000
         Rot=    1.000000    0.000000    0.000000    0.000000 Ang=   0.00 deg.
 Guess basis will be translated and rotated to current coordinates.
 Initial guess orbital symmetries:
       Occupied  (A1) (A1) (B2) (A1) (B1)
       Virtual   (A1) (B2) (A1) (B1) (B2) (A1) (B2) (A1) (B2) (B1)
                 (A1) (A1) (A2) (A1) (B1) (A1) (B2) (B2) (A2) (B1)
                 (A1) (A1) (B2) (A1)
 The electronic state of the initial guess is 1-A1.
 Leave Link  401 at Wed Oct 17 12:53:34 2012, MaxMem=  268435456 cpu:       0.1
 (Enter /home/est863/Gaussian/g09/l502.exe)
 Closed shell SCF:
 Requested convergence on RMS density matrix=1.00D-08 within 128 cycles.
 Requested convergence on MAX density matrix=1.00D-06.
 Requested convergence on             energy=1.00D-06.
 No special actions if energy rises.
 Using DIIS extrapolation, IDIIS=  1040.
 Integral symmetry usage will be decided dynamically.
        24973 words used for storage of precomputed grid.
 Keep R1 ints in memory in canonical form, NReq=3182895.
 IEnd=       46098 IEndB=       46098 NGot=   268435456 MDV=   268312011
 LenX=   268312011 LenY=   268310729
 Symmetry not used in FoFDir.
 MinBra= 0 MaxBra= 2 Meth= 1.
 IRaf=       0 NMat=   1 IRICut=       1 DoRegI=T DoRafI=F ISym2E= 0 JSym2E=0.

 Cycle   1  Pass 1  IDiag  1:
 E= -76.4422730033862    
 DIIS: error= 5.29D-04 at cycle   1 NSaved=   1.
 NSaved= 1 IEnMin= 1 EnMin= -76.4422730033862     IErMin= 1 ErrMin= 5.29D-04
 ErrMax= 5.29D-04 EMaxC= 1.00D-01 BMatC= 6.74D-06 BMatP= 6.74D-06
 IDIUse=3 WtCom= 9.95D-01 WtEn= 5.29D-03
 Coeff-Com:  0.100D+01
 Coeff-En:   0.100D+01
 Coeff:      0.100D+01
 Gap=     0.360 Goal=   None    Shift=    0.000
 RMSDP=1.48D-04 MaxDP=1.03D-03              OVMax= 1.55D-03

 Cycle   2  Pass 1  IDiag  1:
 E= -76.4422811453176     Delta-E=       -0.000008141931 Rises=F Damp=F
 DIIS: error= 2.09D-04 at cycle   2 NSaved=   2.
 NSaved= 2 IEnMin= 2 EnMin= -76.4422811453176     IErMin= 2 ErrMin= 2.09D-04
 ErrMax= 2.09D-04 EMaxC= 1.00D-01 BMatC= 8.95D-07 BMatP= 6.74D-06
 IDIUse=3 WtCom= 9.98D-01 WtEn= 2.09D-03
 Coeff-Com:  0.126D+00 0.874D+00
 Coeff-En:   0.000D+00 0.100D+01
 Coeff:      0.126D+00 0.874D+00
 Gap=     0.360 Goal=   None    Shift=    0.000
 RMSDP=3.68D-05 MaxDP=4.80D-04 DE=-8.14D-06 OVMax= 5.48D-04

 Cycle   3  Pass 1  IDiag  1:
 E= -76.4422808561389     Delta-E=        0.000000289179 Rises=F Damp=F
 DIIS: error= 2.50D-04 at cycle   3 NSaved=   3.
 NSaved= 3 IEnMin= 2 EnMin= -76.4422811453176     IErMin= 2 ErrMin= 2.09D-04
 ErrMax= 2.50D-04 EMaxC= 1.00D-01 BMatC= 1.34D-06 BMatP= 8.95D-07
 IDIUse=3 WtCom= 3.87D-01 WtEn= 6.13D-01
 Coeff-Com: -0.318D-01 0.564D+00 0.468D+00
 Coeff-En:   0.000D+00 0.577D+00 0.423D+00
 Coeff:     -0.123D-01 0.572D+00 0.441D+00
 Gap=     0.360 Goal=   None    Shift=    0.000
 RMSDP=2.06D-05 MaxDP=2.45D-04 DE= 2.89D-07 OVMax= 2.75D-04

 Cycle   4  Pass 1  IDiag  1:
 E= -76.4422818122714     Delta-E=       -0.000000956133 Rises=F Damp=F
 DIIS: error= 7.44D-06 at cycle   4 NSaved=   4.
 NSaved= 4 IEnMin= 4 EnMin= -76.4422818122714     IErMin= 4 ErrMin= 7.44D-06
 ErrMax= 7.44D-06 EMaxC= 1.00D-01 BMatC= 1.62D-09 BMatP= 8.95D-07
 IDIUse=1 WtCom= 1.00D+00 WtEn= 0.00D+00
 Coeff-Com: -0.579D-02 0.681D-01 0.292D-01 0.908D+00
 Coeff:     -0.579D-02 0.681D-01 0.292D-01 0.908D+00
 Gap=     0.360 Goal=   None    Shift=    0.000
 RMSDP=1.26D-06 MaxDP=8.96D-06 DE=-9.56D-07 OVMax= 1.58D-05

 Cycle   5  Pass 1  IDiag  1:
 E= -76.4422818136841     Delta-E=       -0.000000001413 Rises=F Damp=F
 DIIS: error= 7.51D-07 at cycle   5 NSaved=   5.
 NSaved= 5 IEnMin= 5 EnMin= -76.4422818136841     IErMin= 5 ErrMin= 7.51D-07
 ErrMax= 7.51D-07 EMaxC= 1.00D-01 BMatC= 1.35D-11 BMatP= 1.62D-09
 IDIUse=1 WtCom= 1.00D+00 WtEn= 0.00D+00
 Coeff-Com:  0.350D-03-0.120D-01-0.121D-01 0.865D-01 0.937D+00
 Coeff:      0.350D-03-0.120D-01-0.121D-01 0.865D-01 0.937D+00
 Gap=     0.360 Goal=   None    Shift=    0.000
 RMSDP=1.85D-07 MaxDP=1.85D-06 DE=-1.41D-09 OVMax= 2.19D-06

 Cycle   6  Pass 1  IDiag  1:
 E= -76.4422818136979     Delta-E=       -0.000000000014 Rises=F Damp=F
 DIIS: error= 6.33D-08 at cycle   6 NSaved=   6.
 NSaved= 6 IEnMin= 6 EnMin= -76.4422818136979     IErMin= 6 ErrMin= 6.33D-08
 ErrMax= 6.33D-08 EMaxC= 1.00D-01 BMatC= 6.98D-14 BMatP= 1.35D-11
 IDIUse=1 WtCom= 1.00D+00 WtEn= 0.00D+00
 Coeff-Com:  0.214D-04-0.108D-03 0.285D-03-0.554D-02-0.245D-01 0.103D+01
 Coeff:      0.214D-04-0.108D-03 0.285D-03-0.554D-02-0.245D-01 0.103D+01
 Gap=     0.360 Goal=   None    Shift=    0.000
 RMSDP=1.41D-08 MaxDP=1.47D-07 DE=-1.38D-11 OVMax= 1.96D-07

 Cycle   7  Pass 1  IDiag  1:
 E= -76.4422818136980     Delta-E=        0.000000000000 Rises=F Damp=F
 DIIS: error= 2.76D-09 at cycle   7 NSaved=   7.
 NSaved= 7 IEnMin= 7 EnMin= -76.4422818136980     IErMin= 7 ErrMin= 2.76D-09
 ErrMax= 2.76D-09 EMaxC= 1.00D-01 BMatC= 1.04D-16 BMatP= 6.98D-14
 IDIUse=1 WtCom= 1.00D+00 WtEn= 0.00D+00
 Coeff-Com: -0.164D-05 0.410D-04 0.233D-04-0.227D-03-0.241D-02-0.571D-01
 Coeff-Com:  0.106D+01
 Coeff:     -0.164D-05 0.410D-04 0.233D-04-0.227D-03-0.241D-02-0.571D-01
 Coeff:      0.106D+01
 Gap=     0.360 Goal=   None    Shift=    0.000
 RMSDP=1.24D-09 MaxDP=1.47D-08 DE=-7.11D-14 OVMax= 1.76D-08

 Error on total polarization charges =  0.00730
 SCF Done:  E(RB3LYP) =  -76.4422818137     A.U. after    7 cycles
             Convg  =    0.1239D-08             -V/T =  2.0096
 KE= 7.571520169361D+01 PE=-1.985407199234D+02 EE= 3.726610672003D+01
 Leave Link  502 at Wed Oct 17 12:53:35 2012, MaxMem=  268435456 cpu:       1.4
 (Enter /home/est863/Gaussian/g09/l801.exe)
 Range of M.O.s used for correlation:     1    29
 NBasis=    29 NAE=     5 NBE=     5 NFC=     0 NFV=     0
 NROrb=     29 NOA=     5 NOB=     5 NVA=    24 NVB=    24
 Leave Link  801 at Wed Oct 17 12:53:35 2012, MaxMem=  268435456 cpu:       0.0
 (Enter /home/est863/Gaussian/g09/l1101.exe)
 Using compressed storage, NAtomX=     3.
 Will process   4 centers per pass.
 Leave Link 1101 at Wed Oct 17 12:53:35 2012, MaxMem=  268435456 cpu:       0.2
 (Enter /home/est863/Gaussian/g09/l1102.exe)
 Symmetrizing basis deriv contribution to polar:
 IMax=3 JMax=2 DiffMx= 0.00D+00
 Leave Link 1102 at Wed Oct 17 12:53:35 2012, MaxMem=  268435456 cpu:       0.1
 (Enter /home/est863/Gaussian/g09/l1110.exe)
 Forming Gx(P) for the SCF density, NAtomX=     3.
 Integral derivatives from FoFDir/FoFCou, PRISM(SPDF).
 Do as many integral derivatives as possible in FoFDir.
 G2DrvN: MDV=     268435328.
 G2DrvN: will do     4 centers at a time, making    1 passes doing MaxLOS=2.
 Calling FoFCou, ICntrl=  3107 FMM=F I1Cent=   0 AccDes= 0.00D+00.
 FoFCou: FMM=F IPFlag=           0 FMFlag=      100000 FMFlg1=           0
         NFxFlg=           0 DoJE=F BraDBF=F KetDBF=F FulRan=T
         Omega=  0.000000  0.000000  1.000000  0.000000  0.000000 ICntrl=    3107 IOpCl=  0
         NMat0=    1 NMatS0=    1 NMatT0=    0 NMatD0=    1 NMtDS0=    0 NMtDT0=    0
         I1Cent=           0 NGrid=           0.
 Petite list used in FoFCou.
 FoFDir/FoFCou used for L=0 through L=2.
 G2PCM: DoFxE=T DoFxN=T DoGrad=T DoPD/DQ/DG=FFF NFrqRd=   0 IEInf=0 DoCFld=F IF1Alg=4.
 GePol: Maximum number of non-zero 1st derivatives   =     262
 End of G2Drv Frequency-dependent properties file   721 does not exist.
 End of G2Drv Frequency-dependent properties file   722 does not exist.
 Leave Link 1110 at Wed Oct 17 12:53:36 2012, MaxMem=  268435456 cpu:       2.0
 (Enter /home/est863/Gaussian/g09/l1002.exe)
 Minotr:  Closed shell wavefunction.
          IDoAtm=111
 NEqPCM:  Using equilibrium solvation (IEInf=0, Eps=  78.3553, EpsInf=   1.7778)
          Direct CPHF calculation.
          Differentiating once with respect to electric field.
                with respect to dipole field.
          Differentiating once with respect to nuclear coordinates.
          Using symmetry in CPHF.
          Requested convergence is 1.0D-08 RMS, and 1.0D-07 maximum.
          Secondary convergence is 1.0D-12 RMS, and 1.0D-12 maximum.
          NewPWx=T KeepS1=F KeepF1=F KeepIn=T MapXYZ=F SortEE=F KeepMc=T.
          MDV=     268435422 using IRadAn=       2.
 Generate precomputed XC quadrature information.
          Keep R1 ints in memory in canonical form, NReq=916070.
 Symmetry not used in FoFDir.
 MinBra= 0 MaxBra= 2 Meth= 1.
 IRaf=       0 NMat=   1 IRICut=       1 DoRegI=T DoRafI=F ISym2E= 0 JSym2E=0.
          Solving linear equations simultaneously, MaxMat=       0.
          There are     9 degrees of freedom in the 1st order CPHF.  IDoFFX=4.
      9 vectors produced by pass  0 Test12= 1.33D-15 1.11D-08 XBig12= 3.26D+00 1.40D+00.
 AX will form     9 AO Fock derivatives at one time.
      9 vectors produced by pass  1 Test12= 1.33D-15 1.11D-08 XBig12= 3.80D-01 2.34D-01.
      9 vectors produced by pass  2 Test12= 1.33D-15 1.11D-08 XBig12= 2.93D-03 2.07D-02.
      9 vectors produced by pass  3 Test12= 1.33D-15 1.11D-08 XBig12= 4.73D-06 9.28D-04.
      9 vectors produced by pass  4 Test12= 1.33D-15 1.11D-08 XBig12= 6.30D-09 3.63D-05.
      4 vectors produced by pass  5 Test12= 1.33D-15 1.11D-08 XBig12= 7.19D-12 1.06D-06.
      1 vectors produced by pass  6 Test12= 1.33D-15 1.11D-08 XBig12= 2.85D-15 1.97D-08.
 Inverted reduced A of dimension    50 with in-core refinement.
 FullF1:  Do perturbations    1 to     9.
 Isotropic polarizability for W=    0.000000        7.73 Bohr**3.
 End of Minotr Frequency-dependent properties file   721 does not exist.
 End of Minotr Frequency-dependent properties file   722 does not exist.
 Leave Link 1002 at Wed Oct 17 12:53:37 2012, MaxMem=  268435456 cpu:       1.4
 (Enter /home/est863/Gaussian/g09/l601.exe)
 Copying SCF densities to generalized density rwf, IOpCl= 0 IROHF=0.

 **********************************************************************

            Population analysis using the SCF density.

 **********************************************************************

 Orbital symmetries:
       Occupied  (A1) (A1) (B2) (A1) (B1)
       Virtual   (A1) (B2) (A1) (B1) (B2) (A1) (B2) (A1) (B2) (B1)
                 (A1) (A1) (A2) (A1) (B1) (A1) (B2) (B2) (A2) (B1)
                 (A1) (A1) (B2) (A1)
 The electronic state is 1-A1.
 Alpha  occ. eigenvalues --  -19.17142  -1.02255  -0.54144  -0.40022  -0.32611
 Alpha virt. eigenvalues --    0.03409   0.12020   0.13942   0.14632   0.20671
 Alpha virt. eigenvalues --    0.24713   0.90975   0.99800   1.08281   1.10657
 Alpha virt. eigenvalues --    1.12446   1.22352   1.50293   1.53279   1.62604
 Alpha virt. eigenvalues --    2.23015   2.24837   2.50387   2.63493   2.64939
 Alpha virt. eigenvalues --    3.02779   3.32431   3.51123   3.91573
          Condensed to atoms (all electrons):
              1          2          3
     1  O    8.204945   0.283161   0.283161
     2  H    0.283161   0.350117  -0.018912
     3  H    0.283161  -0.018912   0.350117
 Mulliken atomic charges:
              1
     1  O   -0.771268
     2  H    0.385634
     3  H    0.385634
 Sum of Mulliken atomic charges =   0.00000
 Mulliken charges with hydrogens summed into heavy atoms:
              1
     1  O    0.000000
 Sum of Mulliken charges with hydrogens summed into heavy atoms =   0.00000
 APT atomic charges:
              1
     1  O   -0.681579
     2  H    0.340790
     3  H    0.340790
 Sum of APT charges=   0.00000
 APT Atomic charges with hydrogens summed into heavy atoms:
              1
     1  O    0.000000
     2  H    0.000000
     3  H    0.000000
 Sum of APT charges=   0.00000
 Electronic spatial extent (au):  <R**2>=             20.1114
 Charge=              0.0000 electrons
 Dipole moment (field-independent basis, Debye):
    X=              0.0000    Y=              0.0000    Z=             -2.4462  Tot=              2.4462
 Quadrupole moment (field-independent basis, Debye-Ang):
   XX=             -7.9427   YY=             -4.2755   ZZ=             -6.5370
   XY=              0.0000   XZ=              0.0000   YZ=              0.0000
 Traceless Quadrupole moment (field-independent basis, Debye-Ang):
   XX=             -1.6910   YY=              1.9762   ZZ=             -0.2853
   XY=              0.0000   XZ=              0.0000   YZ=              0.0000
 Octapole moment (field-independent basis, Debye-Ang**2):
  XXX=              0.0000  YYY=              0.0000  ZZZ=             -1.9501  XYY=              0.0000
  XXY=              0.0000  XXZ=             -0.5798  XZZ=              0.0000  YZZ=              0.0000
  YYZ=             -1.5988  XYZ=              0.0000
 Hexadecapole moment (field-independent basis, Debye-Ang**3):
 XXXX=             -8.1555 YYYY=             -6.2738 ZZZZ=             -8.1959 XXXY=              0.0000
 XXXZ=              0.0000 YYYX=              0.0000 YYYZ=              0.0000 ZZZX=              0.0000
 ZZZY=              0.0000 XXYY=             -2.7091 XXZZ=             -2.7802 YYZZ=             -2.0719
 XXYZ=              0.0000 YYXZ=              0.0000 ZZXY=              0.0000
 N-N= 9.117129696042D+00 E-N=-1.985407199632D+02  KE= 7.571520169361D+01
 Symmetry A1   KE= 6.764187328053D+01
 Symmetry A2   KE= 1.467545102286D-36
 Symmetry B1   KE= 4.432003312241D+00
 Symmetry B2   KE= 3.641325100843D+00
  Exact polarizability:   7.550   0.000   8.486   0.000   0.000   7.146
 Approx polarizability:   6.924   0.000   9.341   0.000   0.000   7.404
 No NMR shielding tensors so no spin-rotation constants.
 Leave Link  601 at Wed Oct 17 12:53:38 2012, MaxMem=  268435456 cpu:       0.4
 (Enter /home/est863/Gaussian/g09/l701.exe)
 Compute integral second derivatives.
 ... and contract with generalized density number  0.
 D2PCM: PCM CHGder 2nd derivatives, FixD1E=F FixD2E=F DoIter=F DoCFld=F I1PDM=0
 GePol: Maximum number of non-zero 2nd derivatives   =     262
 Leave Link  701 at Wed Oct 17 12:53:39 2012, MaxMem=  268435456 cpu:       1.9
 (Enter /home/est863/Gaussian/g09/l702.exe)
 L702 exits ... SP integral derivatives will be done elsewhere.
 Leave Link  702 at Wed Oct 17 12:53:39 2012, MaxMem=  268435456 cpu:       0.0
 (Enter /home/est863/Gaussian/g09/l703.exe)
 Compute integral second derivatives, UseDBF=F ICtDFT=           0.
 Integral derivatives from FoFDir, PRISM(SPDF).
 Calling FoFJK, ICntrl=    100127 FMM=F ISym2X=1 I1Cent= 0 IOpClX= 0 NMat=1 NMatS=1 NMatT=0.
 FoFCou: FMM=F IPFlag=           0 FMFlag=      100000 FMFlg1=         800
         NFxFlg=           0 DoJE=F BraDBF=F KetDBF=F FulRan=T
         Omega=  0.000000  0.000000  1.000000  0.000000  0.000000 ICntrl=  100127 IOpCl=  0
         NMat0=    1 NMatS0=    1 NMatT0=    0 NMatD0=    1 NMtDS0=    0 NMtDT0=    0
         I1Cent=           0 NGrid=           0.
 Petite list used in FoFCou.
 Leave Link  703 at Wed Oct 17 12:53:40 2012, MaxMem=  268435456 cpu:       0.7
 (Enter /home/est863/Gaussian/g09/l716.exe)
 Dipole        =-6.08022608D-17 1.56125113D-17-9.62425002D-01
 Polarizability= 7.55030107D+00 2.48606787D-11 8.48617985D+00
                -8.81052433D-10 1.41800920D-11 7.14570777D+00
 Full mass-weighted force constant matrix:
 Low frequencies --- -216.8423 -212.6166 -121.3856    0.0015    0.0018    0.0026
 Low frequencies --- 1593.5666 3817.0780 3926.7617
 Diagonal vibrational polarizability:
        0.0000000       0.1935396       1.3436438
 Harmonic frequencies (cm**-1), IR intensities (KM/Mole), Raman scattering
 activities (A**4/AMU), depolarization ratios for plane and unpolarized
 incident light, reduced masses (AMU), force constants (mDyne/A),
 and normal coordinates:
                     1                      2                      3
                    A1                     A1                     B2
 Frequencies --  1593.5666              3817.0780              3926.7616
 Red. masses --     1.0832                 1.0447                 1.0831
 Frc consts  --     1.6206                 8.9683                 9.8398
 IR Inten    --   122.6745                23.6235               110.8934
  Atom  AN      X      Y      Z        X      Y      Z        X      Y      Z
     1   8     0.00   0.00   0.07     0.00   0.00   0.05     0.00   0.07   0.00
     2   1     0.00  -0.43  -0.56     0.00   0.59  -0.39     0.00  -0.56   0.43
     3   1     0.00   0.43  -0.56     0.00  -0.59  -0.39     0.00  -0.56  -0.43

 -------------------
 - Thermochemistry -
 -------------------
 Temperature   298.150 Kelvin.  Pressure   1.00000 Atm.
 Atom     1 has atomic number  8 and mass  15.99491
 Atom     2 has atomic number  1 and mass   1.00783
 Atom     3 has atomic number  1 and mass   1.00783
 Molecular mass:    18.01056 amu.
 Principal axes and moments of inertia in atomic units:
                           1         2         3
     Eigenvalues --     2.16877   4.26189   6.43066
           X            0.00000   0.00000   1.00000
           Y            1.00000   0.00000   0.00000
           Z            0.00000   1.00000   0.00000
 This molecule is an asymmetric top.
 Rotational symmetry number  2.
 Rotational temperatures (Kelvin)     39.93679    20.32287    13.46888
 Rotational constants (GHZ):         832.14875   423.46050   280.64633
 Zero-point vibrational energy      55850.1 (Joules/Mol)
                                   13.34849 (Kcal/Mol)
 Vibrational temperatures:   2292.78  5491.92  5649.73
          (Kelvin)
 
 Zero-point correction=                           0.021272 (Hartree/Particle)
 Thermal correction to Energy=                    0.024108
 Thermal correction to Enthalpy=                  0.025052
 Thermal correction to Gibbs Free Energy=         0.003624
 Sum of electronic and zero-point Energies=            -76.421010
 Sum of electronic and thermal Energies=               -76.418174
 Sum of electronic and thermal Enthalpies=             -76.417230
 Sum of electronic and thermal Free Energies=          -76.438658
 
                     E (Thermal)             CV                S
                      KCal/Mol        Cal/Mol-Kelvin    Cal/Mol-Kelvin
 Total                   15.128              6.015             45.101
 Electronic               0.000              0.000              0.000
 Translational            0.889              2.981             34.608
 Rotational               0.889              2.981             10.484
 Vibrational             13.351              0.054              0.008
                       Q            Log10(Q)             Ln(Q)
 Total Bot       0.215425D-01         -1.666704         -3.837728
 Total V=0       0.131159D+09          8.117797         18.691919
 Vib (Bot)       0.164323D-09         -9.784302        -22.529189
 Vib (V=0)       0.100046D+01          0.000199          0.000457
 Electronic      0.100000D+01          0.000000          0.000000
 Translational   0.300432D+07          6.477746         14.915562
 Rotational      0.436367D+02          1.639852          3.775899
 
                                                         Title Card Required
                                                             IR Spectrum
 
     3   3                                                                       1                                                   
     9   8                                                                       5                                                   
     2   1                                                                       9                                                   
     7   7                                                                       4                                                   
 
     X   X                                                                       X                                                   
     X   X                                                                       X                                                   
     X   X                                                                       X                                                   
     X   X                                                                       X                                                   
     X                                                                           X                                                   
     X                                                                           X                                                   
     X                                                                           X                                                   
     X                                                                           X                                                   
     X                                                                           X                                                   
     X                                                                           X                                                   
     X                                                                           X                                                   
     X                                                                           X                                                   
     X                                                                           X                                                   
     X                                                                           X                                                   
     X                                                                           X                                                   
     X                                                                           X                                                   
     X                                                                           X                                                   
     X                                                                           X                                                   
                                                                                 X                                                   
                                                                                 X                                                   
 
 ***** Axes restored to original set *****
 -------------------------------------------------------------------
 Center     Atomic                   Forces (Hartrees/Bohr)
 Number     Number              X              Y              Z
 -------------------------------------------------------------------
      1        8           0.000000000    0.000000000    0.003334002
      2        1           0.000000000    0.000423690   -0.001667001
      3        1           0.000000000   -0.000423690   -0.001667001
 -------------------------------------------------------------------
 Cartesian Forces:  Max     0.003334002 RMS     0.001375677
 Force constants in Cartesian coordinates: 
                1             2             3             4             5 
      1 -0.306236D-02
      2  0.000000D+00  0.690983D+00
      3  0.000000D+00  0.000000D+00  0.446426D+00
      4  0.153118D-02  0.000000D+00  0.000000D+00 -0.104657D-02
      5  0.000000D+00 -0.345492D+00  0.204346D+00  0.000000D+00  0.373351D+00
      6  0.000000D+00  0.262853D+00 -0.223213D+00  0.000000D+00 -0.233599D+00
      7  0.153118D-02  0.000000D+00  0.000000D+00 -0.484605D-03  0.000000D+00
      8  0.000000D+00 -0.345492D+00 -0.204346D+00  0.000000D+00 -0.278591D-01
      9  0.000000D+00 -0.262853D+00 -0.223213D+00  0.000000D+00  0.292535D-01
                6             7             8             9 
      6  0.210241D+00
      7  0.000000D+00 -0.104657D-02
      8 -0.292535D-01  0.000000D+00  0.373351D+00
      9  0.129718D-01  0.000000D+00  0.233599D+00  0.210241D+00
 Force constants in internal coordinates: 
                1             2             3 
      1  0.538913D+00
      2 -0.587008D-02  0.538913D+00
      3  0.280626D-01  0.280626D-01  0.153188D+00
 Leave Link  716 at Wed Oct 17 12:53:40 2012, MaxMem=  268435456 cpu:       0.1
 (Enter /home/est863/Gaussian/g09/l103.exe)

 GradGradGradGradGradGradGradGradGradGradGradGradGradGradGradGradGradGrad
 Berny optimization.
 Internal  Forces:  Max     0.001957623 RMS     0.001575291
 Search for a local minimum.
 Step number   1 out of a maximum of    2
 All quantities printed in internal units (Hartrees-Bohrs-Radians)
 Second derivative matrix not updated -- analytic derivatives used.
 The second derivative matrix:
                          R1        R2        A1
           R1           0.53891
           R2          -0.00587   0.53891
           A1           0.02806   0.02806   0.15319
     Eigenvalues ---    0.14909   0.53715   0.54478
 Angle between quadratic step and forces=  25.91 degrees.
 Linear search not attempted -- first point.
 Iteration  1 RMS(Cart)=  0.00706819 RMS(Int)=  0.00003907
 Iteration  2 RMS(Cart)=  0.00004040 RMS(Int)=  0.00000000
 Iteration  3 RMS(Cart)=  0.00000000 RMS(Int)=  0.00000000
 ClnCor:  largest displacement from symmetrization is 1.66D-14 for atom     3.
 Variable       Old X    -DE/DX   Delta X   Delta X   Delta X     New X
                                 (Linear)    (Quad)   (Total)
    R1        1.82372   0.00134   0.00000   0.00326   0.00326   1.82698
    R2        1.82372   0.00134   0.00000   0.00326   0.00326   1.82698
    A1        1.84570  -0.00196   0.00000  -0.01397  -0.01397   1.83173
         Item               Value     Threshold  Converged?
 Maximum Force            0.001958     0.000450     NO 
 RMS     Force            0.001575     0.000300     NO 
 Maximum Displacement     0.008077     0.001800     NO 
 RMS     Displacement     0.007089     0.001200     NO 
 Predicted change in Energy=-1.805342D-05
 GradGradGradGradGradGradGradGradGradGradGradGradGradGradGradGradGradGrad

 Leave Link  103 at Wed Oct 17 12:53:40 2012, MaxMem=  268435456 cpu:       0.4
 (Enter /home/est863/Gaussian/g09/l9999.exe)
 1\1\GINC-LOCALHOST\Freq\RB3LYP\6-31+G(d,p)\H2O1\EST863\17-Oct-2012\0\\
 #P Geom=AllCheck Guess=TCheck SCRF=Check GenChk RB3LYP/6-31+G(d,p) Fre
 q\\Title Card Required\\0,1\O,0.,0.,0.1152167184\H,0.,0.769475112,-0.4
 672528592\H,0.,-0.769475112,-0.4672528592\\Version=EM64L-G09RevA.01\St
 ate=1-A1\HF=-76.4422818\RMSD=1.239e-09\RMSF=1.376e-03\ZeroPoint=0.0212
 722\Thermal=0.0241081\Dipole=0.,0.,-0.962425\DipoleDeriv=-0.8748281,0.
 ,0.,0.,-0.6625192,0.,0.,0.,-0.5073901,0.437414,0.,0.,0.,0.3312596,0.05
 61168,0.,0.0804955,0.2536951,0.437414,0.,0.,0.,0.3312596,-0.0561168,0.
 ,-0.0804955,0.2536951\Polar=7.5503011,0.,8.4861798,0.,0.,7.1457078\PG=
 C02V [C2(O1),SGV(H2)]\NImag=0\\-0.00306236,0.,0.69098317,0.,0.,0.44642
 588,0.00153118,0.,0.,-0.00104657,0.,-0.34549159,0.20434570,0.,0.373350
 70,0.,0.26285270,-0.22321294,0.,-0.23359920,0.21024117,0.00153118,0.,0
 .,-0.00048461,0.,0.,-0.00104657,0.,-0.34549159,-0.20434570,0.,-0.02785
 912,-0.02925350,0.,0.37335070,0.,-0.26285270,-0.22321294,0.,0.02925350
 ,0.01297177,0.,0.23359920,0.21024117\\0.,0.,-0.00333400,0.,-0.00042369
 ,0.00166700,0.,0.00042369,0.00166700\\\@


 ONE OF THE BENEFITS OF A COLLEGE EDUCATION
 IS TO SHOW THE BOY ITS LITTLE AVAIL 
                                    EMERSON IN 'CULTURE'
 Job cpu time:  0 days  0 hours  0 minutes  9.6 seconds.
 File lengths (MBytes):  RWF=      9 Int=      0 D2E=      0 Chk=      2 Scr=      1
 Normal termination of Gaussian 09 at Wed Oct 17 12:53:40 2012.
