 Entering Gaussian System, Link 0=g09
 Input=/home/est863/workspace/863program/src/forguassian/WATERopt/WATERopt.gjf
 Output=/home/est863/workspace/863program/src/forguassian/WATERopt/WATERopt.IPlog
 Initial command:
 /home/est863/Gaussian/g09/l1.exe /home/est863/Gaussian/g09/scratch/Gau-10855.inp -scrdir=/home/est863/Gaussian/g09/scratch/
 Entering Link 1 = /home/est863/Gaussian/g09/l1.exe PID=     10856.
  
 Copyright (c) 1988,1990,1992,1993,1995,1998,2003,2009, Gaussian, Inc.
                  All Rights Reserved.
  
 This is part of the Gaussian(R) 09 program.  It is based on
 the Gaussian(R) 03 system (copyright 2003, Gaussian, Inc.),
 the Gaussian(R) 98 system (copyright 1998, Gaussian, Inc.),
 the Gaussian(R) 94 system (copyright 1995, Gaussian, Inc.),
 the Gaussian 92(TM) system (copyright 1992, Gaussian, Inc.),
 the Gaussian 90(TM) system (copyright 1990, Gaussian, Inc.),
 the Gaussian 88(TM) system (copyright 1988, Gaussian, Inc.),
 the Gaussian 86(TM) system (copyright 1986, Carnegie Mellon
 University), and the Gaussian 82(TM) system (copyright 1983,
 Carnegie Mellon University). Gaussian is a federally registered
 trademark of Gaussian, Inc.
  
 This software contains proprietary and confidential information,
 including trade secrets, belonging to Gaussian, Inc.
  
 This software is provided under written license and may be
 used, copied, transmitted, or stored only in accord with that
 written license.
  
 The following legend is applicable only to US Government
 contracts under FAR:
  
                    RESTRICTED RIGHTS LEGEND
  
 Use, reproduction and disclosure by the US Government is
 subject to restrictions as set forth in subparagraphs (a)
 and (c) of the Commercial Computer Software - Restricted
 Rights clause in FAR 52.227-19.
  
 Gaussian, Inc.
 340 Quinnipiac St., Bldg. 40, Wallingford CT 06492
  
  
 ---------------------------------------------------------------
 Warning -- This program may not be used in any manner that
 competes with the business of Gaussian, Inc. or will provide
 assistance to any competitor of Gaussian, Inc.  The licensee
 of this program is prohibited from giving any competitor of
 Gaussian, Inc. access to this program.  By using this program,
 the user acknowledges that Gaussian, Inc. is engaged in the
 business of creating and licensing software in the field of
 computational chemistry and represents and warrants to the
 licensee that it is not a competitor of Gaussian, Inc. and that
 it will not use this program in any manner prohibited above.
 ---------------------------------------------------------------
  

 Cite this work as:
 Gaussian 09, Revision A.01,
 M. J. Frisch, G. W. Trucks, H. B. Schlegel, G. E. Scuseria, 
 M. A. Robb, J. R. Cheeseman, G. Scalmani, V. Barone, B. Mennucci, 
 G. A. Petersson, H. Nakatsuji, M. Caricato, X. Li, H. P. Hratchian, 
 A. F. Izmaylov, J. Bloino, G. Zheng, J. L. Sonnenberg, M. Hada, 
 M. Ehara, K. Toyota, R. Fukuda, J. Hasegawa, M. Ishida, T. Nakajima, 
 Y. Honda, O. Kitao, H. Nakai, T. Vreven, J. A. Montgomery, Jr., 
 J. E. Peralta, F. Ogliaro, M. Bearpark, J. J. Heyd, E. Brothers, 
 K. N. Kudin, V. N. Staroverov, R. Kobayashi, J. Normand, 
 K. Raghavachari, A. Rendell, J. C. Burant, S. S. Iyengar, J. Tomasi, 
 M. Cossi, N. Rega, J. M. Millam, M. Klene, J. E. Knox, J. B. Cross, 
 V. Bakken, C. Adamo, J. Jaramillo, R. Gomperts, R. E. Stratmann, 
 O. Yazyev, A. J. Austin, R. Cammi, C. Pomelli, J. W. Ochterski, 
 R. L. Martin, K. Morokuma, V. G. Zakrzewski, G. A. Voth, 
 P. Salvador, J. J. Dannenberg, S. Dapprich, A. D. Daniels, 
 O. Farkas, J. B. Foresman, J. V. Ortiz, J. Cioslowski, 
 and D. J. Fox, Gaussian, Inc., Wallingford CT, 2009.
 
 ******************************************
 Gaussian 09:  EM64L-G09RevA.01  8-May-2009
                17-Oct-2012 
 ******************************************
 %chk=WATERopt.chk
 %nproc=2
 Will use up to    2 processors via shared memory.
 %mem=2GB
 -------------------------------------
 #p rb3lyp/6-31+g(d,p) sp volume polar
 -------------------------------------
 1/38=1/1;
 2/12=2,17=6,18=5,40=1/2;
 3/5=1,6=6,7=111,11=2,16=1,25=1,30=1,74=-5,116=1/1,2,3;
 4//1;
 5/5=2,38=5,98=1/2;
 8/6=4,10=90,11=11/1;
 10/6=1,13=10/2;
 6/7=2,8=2,9=2,10=2,28=1,44=1/1,4;
 99/5=1,9=1/99;
 Leave Link    1 at Wed Oct 17 12:53:37 2012, MaxMem=  268435456 cpu:       0.0
 (Enter /home/est863/Gaussian/g09/l101.exe)
 -------------------
 Title Card Required
 -------------------
 Symbolic Z-matrix:
 Charge =  0 Multiplicity = 1
 O                     0.        0.        0.11639 
 H                     0.        0.77022  -0.46556 
 H                     0.       -0.77022  -0.46556 
 
 NAtoms=      3 NQM=      3 NQMF=      0 NMic=      0 NMicF=      0 NTot=      3.
                    Isotopes and Nuclear Properties:
 (Nuclear quadrupole moments (NQMom) in fm**2, nuclear magnetic moments (NMagM)
  in nuclear magnetons)

  Atom         1           2           3
 IAtWgt=          16           1           1
 AtmWgt=  15.9949146   1.0078250   1.0078250
 NucSpn=           0           1           1
 AtZEff=   0.0000000   0.0000000   0.0000000
 NQMom=    0.0000000   0.0000000   0.0000000
 NMagM=    0.0000000   2.7928460   2.7928460
 Leave Link  101 at Wed Oct 17 12:53:37 2012, MaxMem=  268435456 cpu:       0.1
 (Enter /home/est863/Gaussian/g09/l202.exe)
                          Input orientation:                          
 ---------------------------------------------------------------------
 Center     Atomic      Atomic             Coordinates (Angstroms)
 Number     Number       Type             X           Y           Z
 ---------------------------------------------------------------------
      1          8           0        0.000000    0.000000    0.116390
      2          1           0        0.000000    0.770215   -0.465562
      3          1           0        0.000000   -0.770215   -0.465562
 ---------------------------------------------------------------------
                    Distance matrix (angstroms):
                    1          2          3
     1  O    0.000000
     2  H    0.965349   0.000000
     3  H    0.965349   1.540430   0.000000
 Stoichiometry    H2O
 Framework group  C2V[C2(O),SGV(H2)]
 Deg. of freedom     2
 Full point group                 C2V     NOp   4
 Largest Abelian subgroup         C2V     NOp   4
 Largest concise Abelian subgroup C2      NOp   2
                         Standard orientation:                         
 ---------------------------------------------------------------------
 Center     Atomic      Atomic             Coordinates (Angstroms)
 Number     Number       Type             X           Y           Z
 ---------------------------------------------------------------------
      1          8           0        0.000000    0.000000    0.116390
      2          1           0        0.000000    0.770215   -0.465562
      3          1           0        0.000000   -0.770215   -0.465562
 ---------------------------------------------------------------------
 Rotational constants (GHZ):    833.6296069    422.6473133    280.4567273
 Leave Link  202 at Wed Oct 17 12:53:37 2012, MaxMem=  268435456 cpu:       0.1
 (Enter /home/est863/Gaussian/g09/l301.exe)
 Standard basis: 6-31+G(d,p) (6D, 7F)
 Ernie: Thresh=  0.10000D-02 Tol=  0.10000D-05 Strict=F.
 There are    14 symmetry adapted basis functions of A1  symmetry.
 There are     2 symmetry adapted basis functions of A2  symmetry.
 There are     5 symmetry adapted basis functions of B1  symmetry.
 There are     8 symmetry adapted basis functions of B2  symmetry.
 Integral buffers will be    131072 words long.
 Raffenetti 2 integral format.
 Two-electron integral symmetry is turned on.
    29 basis functions,    46 primitive gaussians,    29 cartesian basis functions
     5 alpha electrons        5 beta electrons
       nuclear repulsion energy         9.1142735100 Hartrees.
 IExCor=  402 DFT=T Ex+Corr=B3LYP ExCW=0 ScaHFX=  0.200000
 ScaDFX=  0.800000  0.720000  1.000000  0.810000 ScalE2=  1.000000  1.000000
 IRadAn=      0 IRanWt=     -1 IRanGd=            0 ICorTp=0
 NAtoms=    3 NActive=    3 NUniq=    2 SFac= 1.69D+00 NAtFMM=   80 NAOKFM=F Big=F
 Leave Link  301 at Wed Oct 17 12:53:37 2012, MaxMem=  268435456 cpu:       0.0
 (Enter /home/est863/Gaussian/g09/l302.exe)
 NPDir=0 NMtPBC=     1 NCelOv=     1 NCel=       1 NClECP=     1 NCelD=      1
         NCelK=      1 NCelE2=     1 NClLst=     1 CellRange=     0.0.
 One-electron integrals computed using PRISM.
 One-electron integral symmetry used in STVInt
 NBasis=    29 RedAO= T  NBF=    14     2     5     8
 NBsUse=    29 1.00D-06 NBFU=    14     2     5     8
 Precomputing XC quadrature grid using
 IXCGrd= 2 IRadAn=           0 IRanWt=          -1 IRanGd=           0 AccXCQ= 1.00D-10.
 NRdTot=     187 NPtTot=       23652 NUsed=       25013 NTot=       25045
 NSgBfM=    29    29    29    29    29 NAtAll=     3     3.
 Leave Link  302 at Wed Oct 17 12:53:38 2012, MaxMem=  268435456 cpu:       0.4
 (Enter /home/est863/Gaussian/g09/l303.exe)
 DipDrv:  MaxL=1.
 Leave Link  303 at Wed Oct 17 12:53:38 2012, MaxMem=  268435456 cpu:       0.0
 (Enter /home/est863/Gaussian/g09/l401.exe)
 Harris functional with IExCor=  402 diagonalized for initial guess.
 ExpMin= 8.45D-02 ExpMax= 5.48D+03 ExpMxC= 8.25D+02 IAcc=2 IRadAn=         0 AccDes= 0.00D+00
 HarFok:  IExCor=  402 AccDes= 0.00D+00 IRadAn=         0 IDoV= 1
 ScaDFX=  1.000000  1.000000  1.000000  1.000000
 FoFCou: FMM=F IPFlag=           0 FMFlag=      100000 FMFlg1=           0
         NFxFlg=           0 DoJE=T BraDBF=F KetDBF=T FulRan=T
         Omega=  0.000000  0.000000  1.000000  0.000000  0.000000 ICntrl=     500 IOpCl=  0
         NMat0=    1 NMatS0=    1 NMatT0=    0 NMatD0=    1 NMtDS0=    0 NMtDT0=    0
         I1Cent=           4 NGrid=           0.
 Petite list used in FoFCou.
 Harris En= -76.4703221397330    
 Initial guess orbital symmetries:
       Occupied  (A1) (A1) (B2) (A1) (B1)
       Virtual   (A1) (B2) (A1) (B1) (B2) (A1) (B2) (A1) (B1) (B2)
                 (A1) (A1) (A2) (A1) (B1) (A1) (B2) (B2) (A2) (B1)
                 (A1) (A1) (B2) (A1)
 The electronic state of the initial guess is 1-A1.
 Leave Link  401 at Wed Oct 17 12:53:38 2012, MaxMem=  268435456 cpu:       0.6
 (Enter /home/est863/Gaussian/g09/l502.exe)
 Closed shell SCF:
 Requested convergence on RMS density matrix=1.00D-08 within 128 cycles.
 Requested convergence on MAX density matrix=1.00D-06.
 Requested convergence on             energy=1.00D-06.
 No special actions if energy rises.
 Using DIIS extrapolation, IDIIS=  1040.
 Integral symmetry usage will be decided dynamically.
        24973 words used for storage of precomputed grid.
 Keep R1 ints in memory in canonical form, NReq=999482.
 IEnd=       46098 IEndB=       46098 NGot=   268435456 MDV=   268312011
 LenX=   268312011 LenY=   268310729
 Symmetry not used in FoFDir.
 MinBra= 0 MaxBra= 2 Meth= 1.
 IRaf=       0 NMat=   1 IRICut=       1 DoRegI=T DoRafI=F ISym2E= 0 JSym2E=0.
 Integral accuracy reduced to 1.0D-05 until final iterations.

 Cycle   1  Pass 0  IDiag  1:
 E= -76.3597981546583    
 DIIS: error= 6.90D-02 at cycle   1 NSaved=   1.
 NSaved= 1 IEnMin= 1 EnMin= -76.3597981546583     IErMin= 1 ErrMin= 6.90D-02
 ErrMax= 6.90D-02 EMaxC= 1.00D-01 BMatC= 9.66D-02 BMatP= 9.66D-02
 IDIUse=3 WtCom= 3.10D-01 WtEn= 6.90D-01
 Coeff-Com:  0.100D+01
 Coeff-En:   0.100D+01
 Coeff:      0.100D+01
 Gap=     0.199 Goal=   None    Shift=    0.000
 GapD=    0.199 DampG=1.000 DampE=0.500 DampFc=0.5000 IDamp=-1.
 Damping current iteration by 5.00D-01
 RMSDP=1.66D-02 MaxDP=1.80D-01              OVMax= 2.22D-01

 Cycle   2  Pass 0  IDiag  1:
 E= -76.3723965890001     Delta-E=       -0.012598434342 Rises=F Damp=T
 DIIS: error= 2.66D-02 at cycle   2 NSaved=   2.
 NSaved= 2 IEnMin= 2 EnMin= -76.3723965890001     IErMin= 2 ErrMin= 2.66D-02
 ErrMax= 2.66D-02 EMaxC= 1.00D-01 BMatC= 1.35D-02 BMatP= 9.66D-02
 IDIUse=3 WtCom= 7.34D-01 WtEn= 2.66D-01
 Coeff-Com:  0.264D+00 0.736D+00
 Coeff-En:   0.425D+00 0.575D+00
 Coeff:      0.307D+00 0.693D+00
 Gap=     0.328 Goal=   None    Shift=    0.000
 RMSDP=2.18D-03 MaxDP=2.02D-02 DE=-1.26D-02 OVMax= 1.43D-01

 Cycle   3  Pass 0  IDiag  1:
 E= -76.4336921525399     Delta-E=       -0.061295563540 Rises=F Damp=F
 DIIS: error= 4.59D-03 at cycle   3 NSaved=   3.
 NSaved= 3 IEnMin= 3 EnMin= -76.4336921525399     IErMin= 3 ErrMin= 4.59D-03
 ErrMax= 4.59D-03 EMaxC= 1.00D-01 BMatC= 5.32D-04 BMatP= 1.35D-02
 IDIUse=3 WtCom= 9.54D-01 WtEn= 4.59D-02
 Coeff-Com:  0.621D-01-0.193D-01 0.957D+00
 Coeff-En:   0.000D+00 0.000D+00 0.100D+01
 Coeff:      0.593D-01-0.184D-01 0.959D+00
 Gap=     0.346 Goal=   None    Shift=    0.000
 RMSDP=3.84D-04 MaxDP=4.53D-03 DE=-6.13D-02 OVMax= 4.96D-03

 Cycle   4  Pass 0  IDiag  1:
 E= -76.4340475421340     Delta-E=       -0.000355389594 Rises=F Damp=F
 DIIS: error= 4.22D-04 at cycle   4 NSaved=   4.
 NSaved= 4 IEnMin= 4 EnMin= -76.4340475421340     IErMin= 4 ErrMin= 4.22D-04
 ErrMax= 4.22D-04 EMaxC= 1.00D-01 BMatC= 3.88D-06 BMatP= 5.32D-04
 IDIUse=3 WtCom= 9.96D-01 WtEn= 4.22D-03
 Coeff-Com:  0.891D-02-0.222D-01 0.201D+00 0.813D+00
 Coeff-En:   0.000D+00 0.000D+00 0.000D+00 0.100D+01
 Coeff:      0.887D-02-0.221D-01 0.200D+00 0.813D+00
 Gap=     0.346 Goal=   None    Shift=    0.000
 RMSDP=3.15D-05 MaxDP=2.18D-04 DE=-3.55D-04 OVMax= 4.34D-04

 Cycle   5  Pass 0  IDiag  1:
 E= -76.4340501942496     Delta-E=       -0.000002652116 Rises=F Damp=F
 DIIS: error= 1.50D-04 at cycle   5 NSaved=   5.
 NSaved= 5 IEnMin= 5 EnMin= -76.4340501942496     IErMin= 5 ErrMin= 1.50D-04
 ErrMax= 1.50D-04 EMaxC= 1.00D-01 BMatC= 4.33D-07 BMatP= 3.88D-06
 IDIUse=3 WtCom= 9.99D-01 WtEn= 1.50D-03
 Coeff-Com:  0.218D-02-0.311D-02 0.161D-01 0.631D-01 0.922D+00
 Coeff-En:   0.000D+00 0.000D+00 0.000D+00 0.000D+00 0.100D+01
 Coeff:      0.218D-02-0.311D-02 0.161D-01 0.631D-01 0.922D+00
 Gap=     0.346 Goal=   None    Shift=    0.000
 RMSDP=1.27D-05 MaxDP=1.35D-04 DE=-2.65D-06 OVMax= 1.71D-04

 Cycle   6  Pass 0  IDiag  1:
 E= -76.4340505284695     Delta-E=       -0.000000334220 Rises=F Damp=F
 DIIS: error= 1.28D-05 at cycle   6 NSaved=   6.
 NSaved= 6 IEnMin= 6 EnMin= -76.4340505284695     IErMin= 6 ErrMin= 1.28D-05
 ErrMax= 1.28D-05 EMaxC= 1.00D-01 BMatC= 3.03D-09 BMatP= 4.33D-07
 IDIUse=1 WtCom= 1.00D+00 WtEn= 0.00D+00
 Coeff-Com: -0.945D-05 0.146D-04-0.413D-03-0.483D-02-0.764D-01 0.108D+01
 Coeff:     -0.945D-05 0.146D-04-0.413D-03-0.483D-02-0.764D-01 0.108D+01
 Gap=     0.346 Goal=   None    Shift=    0.000
 RMSDP=1.13D-06 MaxDP=1.35D-05 DE=-3.34D-07 OVMax= 1.68D-05

 Initial convergence to 1.0D-05 achieved.  Increase integral accuracy.
 Cycle   7  Pass 1  IDiag  1:
 E= -76.4340472394705     Delta-E=        0.000003288999 Rises=F Damp=F
 DIIS: error= 3.19D-06 at cycle   1 NSaved=   1.
 NSaved= 1 IEnMin= 1 EnMin= -76.4340472394705     IErMin= 1 ErrMin= 3.19D-06
 ErrMax= 3.19D-06 EMaxC= 1.00D-01 BMatC= 1.08D-10 BMatP= 1.08D-10
 IDIUse=1 WtCom= 1.00D+00 WtEn= 0.00D+00
 Coeff-Com:  0.100D+01
 Coeff:      0.100D+01
 Gap=     0.346 Goal=   None    Shift=    0.000
 RMSDP=1.13D-06 MaxDP=1.35D-05 DE= 3.29D-06 OVMax= 1.35D-05

 Cycle   8  Pass 1  IDiag  1:
 E= -76.4340472396733     Delta-E=       -0.000000000203 Rises=F Damp=F
 DIIS: error= 1.39D-06 at cycle   2 NSaved=   2.
 NSaved= 2 IEnMin= 2 EnMin= -76.4340472396733     IErMin= 2 ErrMin= 1.39D-06
 ErrMax= 1.39D-06 EMaxC= 1.00D-01 BMatC= 4.01D-11 BMatP= 1.08D-10
 IDIUse=1 WtCom= 1.00D+00 WtEn= 0.00D+00
 Coeff-Com:  0.293D+00 0.707D+00
 Coeff:      0.293D+00 0.707D+00
 Gap=     0.346 Goal=   None    Shift=    0.000
 RMSDP=2.22D-07 MaxDP=2.60D-06 DE=-2.03D-10 OVMax= 3.21D-06

 Cycle   9  Pass 1  IDiag  1:
 E= -76.4340472396839     Delta-E=       -0.000000000011 Rises=F Damp=F
 DIIS: error= 1.24D-06 at cycle   3 NSaved=   3.
 NSaved= 3 IEnMin= 3 EnMin= -76.4340472396839     IErMin= 3 ErrMin= 1.24D-06
 ErrMax= 1.24D-06 EMaxC= 1.00D-01 BMatC= 2.72D-11 BMatP= 4.01D-11
 IDIUse=1 WtCom= 1.00D+00 WtEn= 0.00D+00
 Coeff-Com: -0.274D-01 0.459D+00 0.568D+00
 Coeff:     -0.274D-01 0.459D+00 0.568D+00
 Gap=     0.346 Goal=   None    Shift=    0.000
 RMSDP=9.76D-08 MaxDP=1.36D-06 DE=-1.06D-11 OVMax= 1.70D-06

 Cycle  10  Pass 1  IDiag  1:
 E= -76.4340472397037     Delta-E=       -0.000000000020 Rises=F Damp=F
 DIIS: error= 2.69D-08 at cycle   4 NSaved=   4.
 NSaved= 4 IEnMin= 4 EnMin= -76.4340472397037     IErMin= 4 ErrMin= 2.69D-08
 ErrMax= 2.69D-08 EMaxC= 1.00D-01 BMatC= 1.83D-14 BMatP= 2.72D-11
 IDIUse=1 WtCom= 1.00D+00 WtEn= 0.00D+00
 Coeff-Com: -0.696D-02 0.392D-01 0.539D-01 0.914D+00
 Coeff:     -0.696D-02 0.392D-01 0.539D-01 0.914D+00
 Gap=     0.346 Goal=   None    Shift=    0.000
 RMSDP=4.47D-09 MaxDP=3.83D-08 DE=-1.98D-11 OVMax= 6.29D-08

 SCF Done:  E(RB3LYP) =  -76.4340472397     A.U. after   10 cycles
             Convg  =    0.4470D-08             -V/T =  2.0093
 KE= 7.573136338101D+01 PE=-1.985221365165D+02 EE= 3.724245238579D+01
 Leave Link  502 at Wed Oct 17 12:53:39 2012, MaxMem=  268435456 cpu:       0.3
 (Enter /home/est863/Gaussian/g09/l801.exe)
 Range of M.O.s used for correlation:     1    29
 NBasis=    29 NAE=     5 NBE=     5 NFC=     0 NFV=     0
 NROrb=     29 NOA=     5 NOB=     5 NVA=    24 NVB=    24
 Leave Link  801 at Wed Oct 17 12:53:39 2012, MaxMem=  268435456 cpu:       0.0
 (Enter /home/est863/Gaussian/g09/l1002.exe)
 Minotr:  Closed shell wavefunction.
          Direct CPHF calculation.
          Differentiating once with respect to electric field.
                with respect to dipole field.
          Electric field/nuclear overlap derivatives assumed to be zero.
          Requested convergence is 1.0D-08 RMS, and 1.0D-07 maximum.
          Secondary convergence is 1.0D-12 RMS, and 1.0D-12 maximum.
          NewPWx=F KeepS1=T KeepF1=T KeepIn=T MapXYZ=F SortEE=F KeepMc=T.
          MDV=     268435428 using IRadAn=       2.
 Generate precomputed XC quadrature information.
          Keep R1 ints in memory in canonical form, NReq=916007.
 Symmetry not used in FoFDir.
 MinBra= 0 MaxBra= 2 Meth= 1.
 IRaf=       0 NMat=   1 IRICut=       1 DoRegI=T DoRafI=F ISym2E= 0 JSym2E=0.
          Solving linear equations simultaneously, MaxMat=       0.
          There are     3 degrees of freedom in the 1st order CPHF.  IDoFFX=0.
      3 vectors produced by pass  0 Test12= 4.00D-15 3.33D-08 XBig12= 3.47D+00 1.36D+00.
 AX will form     3 AO Fock derivatives at one time.
      3 vectors produced by pass  1 Test12= 4.00D-15 3.33D-08 XBig12= 6.55D-01 4.33D-01.
      3 vectors produced by pass  2 Test12= 4.00D-15 3.33D-08 XBig12= 9.14D-02 1.27D-01.
      3 vectors produced by pass  3 Test12= 4.00D-15 3.33D-08 XBig12= 1.70D-03 1.52D-02.
      3 vectors produced by pass  4 Test12= 4.00D-15 3.33D-08 XBig12= 8.16D-06 1.06D-03.
      3 vectors produced by pass  5 Test12= 4.00D-15 3.33D-08 XBig12= 3.05D-08 9.16D-05.
      3 vectors produced by pass  6 Test12= 4.00D-15 3.33D-08 XBig12= 1.13D-10 5.21D-06.
      1 vectors produced by pass  7 Test12= 4.00D-15 3.33D-08 XBig12= 1.15D-13 1.45D-07.
 Inverted reduced A of dimension    22 with in-core refinement.
 FullF1:  Do perturbations    1 to     3.
 SCF Polarizability for W=    0.000000:
                1             2             3 
      1  0.667642D+01
      2  0.000000D+00  0.785046D+01
      3  0.000000D+00  0.000000D+00  0.657824D+01
 Isotropic polarizability for W=    0.000000        7.04 Bohr**3.
 SCF Static Hyperpolarizability:
 K=  1 block:
                1 
      1  0.000000D+00
 K=  2 block:
                1             2 
      1  0.000000D+00
      2  0.000000D+00  0.000000D+00
 K=  3 block:
                1             2             3 
      1 -0.319900D+01
      2  0.000000D+00 -0.125403D+02
      3  0.000000D+00  0.000000D+00 -0.657105D+01
 End of Minotr Frequency-dependent properties file   721 does not exist.
 End of Minotr Frequency-dependent properties file   722 does not exist.
 Leave Link 1002 at Wed Oct 17 12:53:39 2012, MaxMem=  268435456 cpu:       0.8
 (Enter /home/est863/Gaussian/g09/l601.exe)
 Copying SCF densities to generalized density rwf, IOpCl= 0 IROHF=0.

 **********************************************************************

            Population analysis using the SCF density.

 **********************************************************************

 Orbital symmetries:
       Occupied  (A1) (A1) (B2) (A1) (B1)
       Virtual   (A1) (B2) (A1) (B1) (B2) (A1) (B2) (A1) (B2) (B1)
                 (A1) (A1) (A2) (A1) (B1) (A1) (B2) (B2) (A2) (B1)
                 (A1) (A1) (B2) (A1)
 The electronic state is 1-A1.
 Alpha  occ. eigenvalues --  -19.16961  -1.02210  -0.54240  -0.39402  -0.32100
 Alpha virt. eigenvalues --    0.02514   0.11443   0.15505   0.15506   0.20617
 Alpha virt. eigenvalues --    0.24166   0.90047   0.98822   1.08862   1.11267
 Alpha virt. eigenvalues --    1.12643   1.23117   1.50270   1.53707   1.63079
 Alpha virt. eigenvalues --    2.22983   2.24056   2.50041   2.63307   2.64472
 Alpha virt. eigenvalues --    3.02380   3.31811   3.50926   3.92164
          Condensed to atoms (all electrons):
              1          2          3
     1  O    8.147518   0.282341   0.282341
     2  H    0.282341   0.385632  -0.024072
     3  H    0.282341  -0.024072   0.385632
 Mulliken atomic charges:
              1
     1  O   -0.712199
     2  H    0.356100
     3  H    0.356100
 Sum of Mulliken atomic charges =   0.00000
 Mulliken charges with hydrogens summed into heavy atoms:
              1
     1  O    0.000000
 Sum of Mulliken charges with hydrogens summed into heavy atoms =   0.00000
 Electronic spatial extent (au):  <R**2>=             20.1468
 Charge=              0.0000 electrons
 Dipole moment (field-independent basis, Debye):
    X=              0.0000    Y=              0.0000    Z=             -2.1935  Tot=              2.1935
 Quadrupole moment (field-independent basis, Debye-Ang):
   XX=             -7.8851   YY=             -4.3703   ZZ=             -6.5412
   XY=              0.0000   XZ=              0.0000   YZ=              0.0000
 Traceless Quadrupole moment (field-independent basis, Debye-Ang):
   XX=             -1.6196   YY=              1.8952   ZZ=             -0.2757
   XY=              0.0000   XZ=              0.0000   YZ=              0.0000
 Octapole moment (field-independent basis, Debye-Ang**2):
  XXX=              0.0000  YYY=              0.0000  ZZZ=             -1.6063  XYY=              0.0000
  XXY=              0.0000  XXZ=             -0.4773  XZZ=              0.0000  YZZ=              0.0000
  YYZ=             -1.4090  XYZ=              0.0000
 Hexadecapole moment (field-independent basis, Debye-Ang**3):
 XXXX=             -7.9604 YYYY=             -6.5041 ZZZZ=             -8.1587 XXXY=              0.0000
 XXXZ=              0.0000 YYYX=              0.0000 YYYZ=              0.0000 ZZZX=              0.0000
 ZZZY=              0.0000 XXYY=             -2.7007 XXZZ=             -2.7385 YYZZ=             -2.1290
 XXYZ=              0.0000 YYXZ=              0.0000 ZZXY=              0.0000
 N-N= 9.114273509953D+00 E-N=-1.985221362633D+02  KE= 7.573136338101D+01
 Symmetry A1   KE= 6.765752797636D+01
 Symmetry A2   KE= 1.912818536707D-36
 Symmetry B1   KE= 4.464210669909D+00
 Symmetry B2   KE= 3.609624734738D+00
  Exact polarizability:   6.676   0.000   7.850   0.000   0.000   6.578
 Approx polarizability:   6.823   0.000   9.685   0.000   0.000   7.658
 No NMR shielding tensors so no spin-rotation constants.
 Leave Link  601 at Wed Oct 17 12:53:40 2012, MaxMem=  268435456 cpu:       0.2
 (Enter /home/est863/Gaussian/g09/l604.exe)
 Evaluate density.
 Using the total density.
 Monte-Carlo method of calculating molar volume:
 based on  0.001 e/bohr**3 density envelope.
 Number of points per bohr**3 =   20 CutOff= 1.00D-04
 Using the SCF density.
 There are       198 points.  Will hold       198 in memory.
 LenV=   268428052 MDV=   268435456.
 Box volume =  982.544 fraction occupied=0.192
 Integrated density= 6.0592256685806944D+00 error=-3.9407743314193056D+00
 Molar volume =  188.569 bohr**3/mol ( 16.828 cm**3/mol)
 Recommended a0 for SCRF calculation =  2.57 angstrom (  4.86 bohr)
 Leave Link  604 at Wed Oct 17 12:53:40 2012, MaxMem=  268435456 cpu:       0.3
 (Enter /home/est863/Gaussian/g09/l9999.exe)
 1\1\GINC-LOCALHOST\SP\RB3LYP\6-31+G(d,p)\H2O1\EST863\17-Oct-2012\0\\#p
  rb3lyp/6-31+g(d,p) sp volume polar\\Title Card Required\\0,1\O,0,0.,0
 .,0.11639\H,0,0.,0.770215,-0.465562\H,0,0.,-0.770215,-0.465562\\Versio
 n=EM64L-G09RevA.01\State=1-A1\HF=-76.4340472\RMSD=4.470e-09\Dipole=0.,
 0.,-0.8629762\Polar=6.6764171,0.,7.8504633,0.,0.,6.5782396\HyperPolar=
 0.,0.,0.,0.,-3.1990016,0.,-12.540301,0.,0.,-6.571054\Quadrupole=-1.204
 1096,1.4090492,-0.2049395,0.,0.,0.\PG=C02V [C2(O1),SGV(H2)]\\@


 ONE OF THE BENEFITS OF A COLLEGE EDUCATION
 IS TO SHOW THE BOY ITS LITTLE AVAIL 
                                    EMERSON IN 'CULTURE'
 Job cpu time:  0 days  0 hours  0 minutes  3.2 seconds.
 File lengths (MBytes):  RWF=      5 Int=      0 D2E=      0 Chk=      2 Scr=      1
 Normal termination of Gaussian 09 at Wed Oct 17 12:53:40 2012.
