 Entering Gaussian System, Link 0=g09
 Input=/home/est863/workspace/863program/src/forguassian/3D2TA-QMMM-insidegauss-ligand/3D2TA-QMMM-insidegauss-ligand.gjf
 Output=/home/est863/workspace/863program/src/forguassian/3D2TA-QMMM-insidegauss-ligand/3D2TA-QMMM-insidegauss-ligand.Gasoptlog
 Initial command:
 /home/est863/Gaussian/g09/l1.exe /home/est863/Gaussian/g09/scratch/Gau-27626.inp -scrdir=/home/est863/Gaussian/g09/scratch/
 Entering Link 1 = /home/est863/Gaussian/g09/l1.exe PID=     27627.
  
 Copyright (c) 1988,1990,1992,1993,1995,1998,2003,2009, Gaussian, Inc.
                  All Rights Reserved.
  
 This is part of the Gaussian(R) 09 program.  It is based on
 the Gaussian(R) 03 system (copyright 2003, Gaussian, Inc.),
 the Gaussian(R) 98 system (copyright 1998, Gaussian, Inc.),
 the Gaussian(R) 94 system (copyright 1995, Gaussian, Inc.),
 the Gaussian 92(TM) system (copyright 1992, Gaussian, Inc.),
 the Gaussian 90(TM) system (copyright 1990, Gaussian, Inc.),
 the Gaussian 88(TM) system (copyright 1988, Gaussian, Inc.),
 the Gaussian 86(TM) system (copyright 1986, Carnegie Mellon
 University), and the Gaussian 82(TM) system (copyright 1983,
 Carnegie Mellon University). Gaussian is a federally registered
 trademark of Gaussian, Inc.
  
 This software contains proprietary and confidential information,
 including trade secrets, belonging to Gaussian, Inc.
  
 This software is provided under written license and may be
 used, copied, transmitted, or stored only in accord with that
 written license.
  
 The following legend is applicable only to US Government
 contracts under FAR:
  
                    RESTRICTED RIGHTS LEGEND
  
 Use, reproduction and disclosure by the US Government is
 subject to restrictions as set forth in subparagraphs (a)
 and (c) of the Commercial Computer Software - Restricted
 Rights clause in FAR 52.227-19.
  
 Gaussian, Inc.
 340 Quinnipiac St., Bldg. 40, Wallingford CT 06492
  
  
 ---------------------------------------------------------------
 Warning -- This program may not be used in any manner that
 competes with the business of Gaussian, Inc. or will provide
 assistance to any competitor of Gaussian, Inc.  The licensee
 of this program is prohibited from giving any competitor of
 Gaussian, Inc. access to this program.  By using this program,
 the user acknowledges that Gaussian, Inc. is engaged in the
 business of creating and licensing software in the field of
 computational chemistry and represents and warrants to the
 licensee that it is not a competitor of Gaussian, Inc. and that
 it will not use this program in any manner prohibited above.
 ---------------------------------------------------------------
  

 Cite this work as:
 Gaussian 09, Revision A.01,
 M. J. Frisch, G. W. Trucks, H. B. Schlegel, G. E. Scuseria, 
 M. A. Robb, J. R. Cheeseman, G. Scalmani, V. Barone, B. Mennucci, 
 G. A. Petersson, H. Nakatsuji, M. Caricato, X. Li, H. P. Hratchian, 
 A. F. Izmaylov, J. Bloino, G. Zheng, J. L. Sonnenberg, M. Hada, 
 M. Ehara, K. Toyota, R. Fukuda, J. Hasegawa, M. Ishida, T. Nakajima, 
 Y. Honda, O. Kitao, H. Nakai, T. Vreven, J. A. Montgomery, Jr., 
 J. E. Peralta, F. Ogliaro, M. Bearpark, J. J. Heyd, E. Brothers, 
 K. N. Kudin, V. N. Staroverov, R. Kobayashi, J. Normand, 
 K. Raghavachari, A. Rendell, J. C. Burant, S. S. Iyengar, J. Tomasi, 
 M. Cossi, N. Rega, J. M. Millam, M. Klene, J. E. Knox, J. B. Cross, 
 V. Bakken, C. Adamo, J. Jaramillo, R. Gomperts, R. E. Stratmann, 
 O. Yazyev, A. J. Austin, R. Cammi, C. Pomelli, J. W. Ochterski, 
 R. L. Martin, K. Morokuma, V. G. Zakrzewski, G. A. Voth, 
 P. Salvador, J. J. Dannenberg, S. Dapprich, A. D. Daniels, 
 O. Farkas, J. B. Foresman, J. V. Ortiz, J. Cioslowski, 
 and D. J. Fox, Gaussian, Inc., Wallingford CT, 2009.
 
 ******************************************
 Gaussian 09:  EM64L-G09RevA.01  8-May-2009
                29-Oct-2012 
 ******************************************
 %chk=3D2TA-QMMM-insidegauss-ligand.chk
 %nproc=2
 Will use up to    2 processors via shared memory.
 %mem=2GB
 ------------------------------------
 #p rb3lyp/6-31+g(d,p) opt freq polar
 ------------------------------------
 1/14=-1,18=20,19=15,26=3,38=1/1,3;
 2/9=110,12=2,17=6,18=5,40=1/2;
 3/5=1,6=6,7=111,11=2,16=1,25=1,30=1,71=1,74=-5,116=1/1,2,3;
 4//1;
 5/5=2,38=5,98=1/2;
 6/7=2,8=2,9=2,10=2,28=1/1;
 7//1,2,3,16;
 1/14=-1,18=20,19=15/3(2);
 2/9=110/2;
 99//99;
 2/9=110/2;
 3/5=1,6=6,7=111,11=2,16=1,25=1,30=1,71=1,74=-5,116=1/1,2,3;
 4/5=5,16=3/1;
 5/5=2,38=5,98=1/2;
 7//1,2,3,16;
 1/14=-1,18=20,19=15/3(-5);
 2/9=110/2;
 6/7=2,8=2,9=2,10=2,19=2,28=1/1;
 99/9=1/99;
 Leave Link    1 at Mon Oct 29 14:18:16 2012, MaxMem=  268435456 cpu:       0.1
 (Enter /home/est863/Gaussian/g09/l101.exe)
 ----
 3D2T
 ----
 Symbolic Z-matrix:
 Charge = -1 Multiplicity = 1
 F                    -0.4656    42.0695   5.4124 
 C                     0.8636    42.6323   5.3944 
 C                     1.4296    42.7565   4.1772 
 C                     2.6795    43.373    3.9895 
 F                     3.2304    43.5016   2.7575 
 C                     3.3693    43.8685   5.0463 
 C                     2.8505    43.7387   6.2505 
 C                     1.5437    43.1099   6.5395 
 C                     1.0472    42.9908   7.8694 
 C                     0.5227    41.7216   8.4202 
 C                    -0.0103    41.5721   9.6022 
 C                    -0.5389    40.1406   10.0202 
 O                    -0.1093    38.994    9.2755 
 O                    -1.2401    39.9816   10.8802 
 C                     0.9611    44.0543   8.7334 
 C                     0.4878    43.9118   9.9477 
 C                     0.0115    42.7512   10.3885 
 O                    -0.4997    42.7126   11.728 
 H                     0.9001    42.3656   3.3084 
 H                     4.3303    44.3625   4.9031 
 H                     3.4255    44.122    7.0935 
 H                     0.5869    40.8375   7.7858 
 H                     1.2935    45.0383   8.4027 
 H                     0.4846    44.772    10.6172 
 H                    -1.5114    42.4319   11.7091 
 
 NAtoms=     25 NQM=     25 NQMF=      0 NMic=      0 NMicF=      0 NTot=     25.
                    Isotopes and Nuclear Properties:
 (Nuclear quadrupole moments (NQMom) in fm**2, nuclear magnetic moments (NMagM)
  in nuclear magnetons)

  Atom         1           2           3           4           5           6           7           8           9          10
 IAtWgt=          19          12          12          12          19          12          12          12          12          12
 AtmWgt=  18.9984033  12.0000000  12.0000000  12.0000000  18.9984033  12.0000000  12.0000000  12.0000000  12.0000000  12.0000000
 NucSpn=           1           0           0           0           1           0           0           0           0           0
 AtZEff=   0.0000000   0.0000000   0.0000000   0.0000000   0.0000000   0.0000000   0.0000000   0.0000000   0.0000000   0.0000000
 NQMom=    0.0000000   0.0000000   0.0000000   0.0000000   0.0000000   0.0000000   0.0000000   0.0000000   0.0000000   0.0000000
 NMagM=    2.6288670   0.0000000   0.0000000   0.0000000   2.6288670   0.0000000   0.0000000   0.0000000   0.0000000   0.0000000

  Atom        11          12          13          14          15          16          17          18          19          20
 IAtWgt=          12          12          16          16          12          12          12          16           1           1
 AtmWgt=  12.0000000  12.0000000  15.9949146  15.9949146  12.0000000  12.0000000  12.0000000  15.9949146   1.0078250   1.0078250
 NucSpn=           0           0           0           0           0           0           0           0           1           1
 AtZEff=   0.0000000   0.0000000   0.0000000   0.0000000   0.0000000   0.0000000   0.0000000   0.0000000   0.0000000   0.0000000
 NQMom=    0.0000000   0.0000000   0.0000000   0.0000000   0.0000000   0.0000000   0.0000000   0.0000000   0.0000000   0.0000000
 NMagM=    0.0000000   0.0000000   0.0000000   0.0000000   0.0000000   0.0000000   0.0000000   0.0000000   2.7928460   2.7928460

  Atom        21          22          23          24          25
 IAtWgt=           1           1           1           1           1
 AtmWgt=   1.0078250   1.0078250   1.0078250   1.0078250   1.0078250
 NucSpn=           1           1           1           1           1
 AtZEff=   0.0000000   0.0000000   0.0000000   0.0000000   0.0000000
 NQMom=    0.0000000   0.0000000   0.0000000   0.0000000   0.0000000
 NMagM=    2.7928460   2.7928460   2.7928460   2.7928460   2.7928460
 Leave Link  101 at Mon Oct 29 14:18:19 2012, MaxMem=  268435456 cpu:       0.1
 (Enter /home/est863/Gaussian/g09/l103.exe)

 GradGradGradGradGradGradGradGradGradGradGradGradGradGradGradGradGradGrad
 Berny optimization.
 Initialization pass.
                           ----------------------------
                           !    Initial Parameters    !
                           ! (Angstroms and Degrees)  !
 --------------------------                            --------------------------
 ! Name  Definition              Value          Derivative Info.                !
 --------------------------------------------------------------------------------
 ! R1    R(1,2)                  1.4436         estimate D2E/DX2                !
 ! R2    R(2,3)                  1.3481         estimate D2E/DX2                !
 ! R3    R(2,8)                  1.4149         estimate D2E/DX2                !
 ! R4    R(3,4)                  1.4063         estimate D2E/DX2                !
 ! R5    R(3,19)                 1.0899         estimate D2E/DX2                !
 ! R6    R(4,5)                  1.3557         estimate D2E/DX2                !
 ! R7    R(4,6)                  1.3558         estimate D2E/DX2                !
 ! R8    R(6,7)                  1.3176         estimate D2E/DX2                !
 ! R9    R(6,20)                 1.09           estimate D2E/DX2                !
 ! R10   R(7,8)                  1.4787         estimate D2E/DX2                !
 ! R11   R(7,21)                 1.09           estimate D2E/DX2                !
 ! R12   R(8,9)                  1.4245         estimate D2E/DX2                !
 ! R13   R(9,10)                 1.4796         estimate D2E/DX2                !
 ! R14   R(9,15)                 1.3729         estimate D2E/DX2                !
 ! R15   R(10,11)                1.3052         estimate D2E/DX2                !
 ! R16   R(10,22)                1.0901         estimate D2E/DX2                !
 ! R17   R(11,12)                1.5822         estimate D2E/DX2                !
 ! R18   R(11,17)                1.4174         estimate D2E/DX2                !
 ! R19   R(12,13)                1.4331         estimate D2E/DX2                !
 ! R20   R(12,14)                1.121          estimate D2E/DX2                !
 ! R21   R(15,16)                1.311          estimate D2E/DX2                !
 ! R22   R(15,23)                1.09           estimate D2E/DX2                !
 ! R23   R(16,17)                1.3297         estimate D2E/DX2                !
 ! R24   R(16,24)                1.09           estimate D2E/DX2                !
 ! R25   R(17,18)                1.4343         estimate D2E/DX2                !
 ! R26   R(18,25)                1.0501         estimate D2E/DX2                !
 ! A1    A(1,2,3)              115.7071         estimate D2E/DX2                !
 ! A2    A(1,2,8)              124.3405         estimate D2E/DX2                !
 ! A3    A(3,2,8)              119.8566         estimate D2E/DX2                !
 ! A4    A(2,3,4)              122.2812         estimate D2E/DX2                !
 ! A5    A(2,3,19)             118.8619         estimate D2E/DX2                !
 ! A6    A(4,3,19)             118.8569         estimate D2E/DX2                !
 ! A7    A(3,4,5)              121.6056         estimate D2E/DX2                !
 ! A8    A(3,4,6)              120.5568         estimate D2E/DX2                !
 ! A9    A(5,4,6)              117.836          estimate D2E/DX2                !
 ! A10   A(4,6,7)              118.4276         estimate D2E/DX2                !
 ! A11   A(4,6,20)             120.7842         estimate D2E/DX2                !
 ! A12   A(7,6,20)             120.7882         estimate D2E/DX2                !
 ! A13   A(6,7,8)              124.6436         estimate D2E/DX2                !
 ! A14   A(6,7,21)             117.6751         estimate D2E/DX2                !
 ! A15   A(8,7,21)             117.6813         estimate D2E/DX2                !
 ! A16   A(2,8,7)              114.2145         estimate D2E/DX2                !
 ! A17   A(2,8,9)              124.0421         estimate D2E/DX2                !
 ! A18   A(7,8,9)              121.7365         estimate D2E/DX2                !
 ! A19   A(8,9,10)             122.8731         estimate D2E/DX2                !
 ! A20   A(8,9,15)             122.9969         estimate D2E/DX2                !
 ! A21   A(10,9,15)            114.0765         estimate D2E/DX2                !
 ! A22   A(9,10,11)            125.4589         estimate D2E/DX2                !
 ! A23   A(9,10,22)            117.2699         estimate D2E/DX2                !
 ! A24   A(11,10,22)           117.2712         estimate D2E/DX2                !
 ! A25   A(10,11,12)           118.6407         estimate D2E/DX2                !
 ! A26   A(10,11,17)           113.6293         estimate D2E/DX2                !
 ! A27   A(12,11,17)           127.6781         estimate D2E/DX2                !
 ! A28   A(11,12,13)           119.1068         estimate D2E/DX2                !
 ! A29   A(11,12,14)           122.684          estimate D2E/DX2                !
 ! A30   A(13,12,14)           118.2092         estimate D2E/DX2                !
 ! A31   A(9,15,16)            121.4206         estimate D2E/DX2                !
 ! A32   A(9,15,23)            119.2903         estimate D2E/DX2                !
 ! A33   A(16,15,23)           119.2891         estimate D2E/DX2                !
 ! A34   A(15,16,17)           122.0876         estimate D2E/DX2                !
 ! A35   A(15,16,24)           118.9575         estimate D2E/DX2                !
 ! A36   A(17,16,24)           118.9549         estimate D2E/DX2                !
 ! A37   A(11,17,16)           123.2083         estimate D2E/DX2                !
 ! A38   A(11,17,18)           119.3557         estimate D2E/DX2                !
 ! A39   A(16,17,18)           117.436          estimate D2E/DX2                !
 ! A40   A(17,18,25)           109.4982         estimate D2E/DX2                !
 ! D1    D(1,2,3,4)            175.4183         estimate D2E/DX2                !
 ! D2    D(1,2,3,19)            -4.5778         estimate D2E/DX2                !
 ! D3    D(8,2,3,4)             -1.178          estimate D2E/DX2                !
 ! D4    D(8,2,3,19)           178.826          estimate D2E/DX2                !
 ! D5    D(1,2,8,7)           -175.3545         estimate D2E/DX2                !
 ! D6    D(1,2,8,9)              5.5842         estimate D2E/DX2                !
 ! D7    D(3,2,8,7)              0.9308         estimate D2E/DX2                !
 ! D8    D(3,2,8,9)           -178.1304         estimate D2E/DX2                !
 ! D9    D(2,3,4,5)           -179.3785         estimate D2E/DX2                !
 ! D10   D(2,3,4,6)              0.1546         estimate D2E/DX2                !
 ! D11   D(19,3,4,5)             0.6176         estimate D2E/DX2                !
 ! D12   D(19,3,4,6)          -179.8493         estimate D2E/DX2                !
 ! D13   D(3,4,6,7)              1.075          estimate D2E/DX2                !
 ! D14   D(3,4,6,20)          -178.9271         estimate D2E/DX2                !
 ! D15   D(5,4,6,7)           -179.3747         estimate D2E/DX2                !
 ! D16   D(5,4,6,20)             0.6232         estimate D2E/DX2                !
 ! D17   D(4,6,7,8)             -1.3047         estimate D2E/DX2                !
 ! D18   D(4,6,7,21)           178.6907         estimate D2E/DX2                !
 ! D19   D(20,6,7,8)           178.6974         estimate D2E/DX2                !
 ! D20   D(20,6,7,21)           -1.3071         estimate D2E/DX2                !
 ! D21   D(6,7,8,2)              0.3098         estimate D2E/DX2                !
 ! D22   D(6,7,8,9)            179.3952         estimate D2E/DX2                !
 ! D23   D(21,7,8,2)          -179.6856         estimate D2E/DX2                !
 ! D24   D(21,7,8,9)            -0.6002         estimate D2E/DX2                !
 ! D25   D(2,8,9,10)            48.3497         estimate D2E/DX2                !
 ! D26   D(2,8,9,15)          -128.8332         estimate D2E/DX2                !
 ! D27   D(7,8,9,10)          -130.6436         estimate D2E/DX2                !
 ! D28   D(7,8,9,15)            52.1735         estimate D2E/DX2                !
 ! D29   D(8,9,10,11)         -176.0306         estimate D2E/DX2                !
 ! D30   D(8,9,10,22)            3.9756         estimate D2E/DX2                !
 ! D31   D(15,9,10,11)           1.3818         estimate D2E/DX2                !
 ! D32   D(15,9,10,22)        -178.612          estimate D2E/DX2                !
 ! D33   D(8,9,15,16)          179.386          estimate D2E/DX2                !
 ! D34   D(8,9,15,23)           -0.6204         estimate D2E/DX2                !
 ! D35   D(10,9,15,16)           1.9773         estimate D2E/DX2                !
 ! D36   D(10,9,15,23)        -178.0291         estimate D2E/DX2                !
 ! D37   D(9,10,11,12)         179.1537         estimate D2E/DX2                !
 ! D38   D(9,10,11,17)          -3.2648         estimate D2E/DX2                !
 ! D39   D(22,10,11,12)         -0.8525         estimate D2E/DX2                !
 ! D40   D(22,10,11,17)        176.729          estimate D2E/DX2                !
 ! D41   D(10,11,12,13)         16.6873         estimate D2E/DX2                !
 ! D42   D(10,11,12,14)       -163.3304         estimate D2E/DX2                !
 ! D43   D(17,11,12,13)       -160.5129         estimate D2E/DX2                !
 ! D44   D(17,11,12,14)         19.4694         estimate D2E/DX2                !
 ! D45   D(10,11,17,16)          2.191          estimate D2E/DX2                !
 ! D46   D(10,11,17,18)       -177.7799         estimate D2E/DX2                !
 ! D47   D(12,11,17,16)        179.509          estimate D2E/DX2                !
 ! D48   D(12,11,17,18)         -0.4619         estimate D2E/DX2                !
 ! D49   D(9,15,16,17)          -3.087          estimate D2E/DX2                !
 ! D50   D(9,15,16,24)         176.9145         estimate D2E/DX2                !
 ! D51   D(23,15,16,17)        176.9194         estimate D2E/DX2                !
 ! D52   D(23,15,16,24)         -3.0791         estimate D2E/DX2                !
 ! D53   D(15,16,17,11)          0.9176         estimate D2E/DX2                !
 ! D54   D(15,16,17,18)       -179.111          estimate D2E/DX2                !
 ! D55   D(24,16,17,11)       -179.0838         estimate D2E/DX2                !
 ! D56   D(24,16,17,18)          0.8876         estimate D2E/DX2                !
 ! D57   D(11,17,18,25)        -60.0004         estimate D2E/DX2                !
 ! D58   D(16,17,18,25)        120.0271         estimate D2E/DX2                !
 --------------------------------------------------------------------------------
 Trust Radius=3.00D-01 FncErr=1.00D-07 GrdErr=1.00D-06
 Number of steps in this run= 134 maximum allowed number of steps= 150.
 GradGradGradGradGradGradGradGradGradGradGradGradGradGradGradGradGradGrad

 Leave Link  103 at Mon Oct 29 14:18:21 2012, MaxMem=  268435456 cpu:       0.0
 (Enter /home/est863/Gaussian/g09/l202.exe)
                          Input orientation:                          
 ---------------------------------------------------------------------
 Center     Atomic      Atomic             Coordinates (Angstroms)
 Number     Number       Type             X           Y           Z
 ---------------------------------------------------------------------
      1          9           0       -0.465600   42.069500    5.412400
      2          6           0        0.863600   42.632300    5.394400
      3          6           0        1.429600   42.756500    4.177200
      4          6           0        2.679500   43.373000    3.989500
      5          9           0        3.230400   43.501600    2.757500
      6          6           0        3.369300   43.868500    5.046300
      7          6           0        2.850500   43.738700    6.250500
      8          6           0        1.543700   43.109900    6.539500
      9          6           0        1.047200   42.990800    7.869400
     10          6           0        0.522700   41.721600    8.420200
     11          6           0       -0.010300   41.572100    9.602200
     12          6           0       -0.538900   40.140600   10.020200
     13          8           0       -0.109300   38.994000    9.275500
     14          8           0       -1.240100   39.981600   10.880200
     15          6           0        0.961100   44.054300    8.733400
     16          6           0        0.487800   43.911800    9.947700
     17          6           0        0.011500   42.751200   10.388500
     18          8           0       -0.499700   42.712600   11.728000
     19          1           0        0.900100   42.365600    3.308400
     20          1           0        4.330300   44.362500    4.903100
     21          1           0        3.425500   44.122000    7.093500
     22          1           0        0.586900   40.837500    7.785800
     23          1           0        1.293500   45.038300    8.402700
     24          1           0        0.484600   44.772000   10.617200
     25          1           0       -1.511400   42.431900   11.709100
 ---------------------------------------------------------------------
                    Distance matrix (angstroms):
                    1          2          3          4          5
     1  F    0.000000
     2  C    1.443551   0.000000
     3  C    2.364206   1.348094   0.000000
     4  C    3.689907   2.412441   1.406255   0.000000
     5  F    4.770725   3.648379   2.411141   1.355674   0.000000
     6  C    4.251692   2.815652   2.398815   1.355791   2.322179
     7  C    3.805937   2.429979   2.698564   2.296758   3.521589
     8  C    2.527859   1.414882   2.391312   2.803884   4.159556
     9  C    3.028895   2.507560   3.719337   4.226595   5.582007
    10  C    3.185064   3.178215   4.460553   5.197116   6.524279
    11  C    4.243716   4.426433   5.736440   6.479249   7.815051
    12  C    4.995783   5.438162   6.697654   7.561471   8.845946
    13  O    4.950676   5.408022   6.520528   7.409105   8.599789
    14  O    5.903898   6.445601   7.730303   8.622448   9.917360
    15  C    4.123584   3.630497   4.760539   5.091331   6.416119
    16  C    4.987182   4.744564   5.959897   6.371342   7.706432
    17  C    5.045187   5.067667   6.371129   6.960751   8.316043
    18  O    6.348350   6.479161   7.793504   8.392129   9.747104
    19  H    2.525792   2.103297   1.089948   2.155230   2.650337
    20  H    5.340215   3.905506   3.394146   2.130473   2.560181
    21  H    4.709513   3.416062   3.788537   3.279075   4.384502
    22  H    2.873779   3.002776   4.173092   5.021915   6.274498
    23  H    4.566191   3.876018   4.804163   4.916356   6.162898
    24  H    5.941071   5.656819   6.813873   7.120477   8.421889
    25  H    6.393236   6.749535   8.092241   8.834112  10.186269
                    6          7          8          9         10
     6  C    0.000000
     7  C    1.317611   0.000000
     8  C    2.477486   1.478728   0.000000
     9  C    3.759308   2.536155   1.424546   0.000000
    10  C    4.908718   3.767618   2.550853   1.479645   0.000000
    11  C    6.119753   4.910420   3.762961   2.476613   1.305206
    12  C    7.342407   6.216510   5.026852   3.907083   2.487279
    13  O    7.331271   6.357926   5.211405   4.391927   2.927587
    14  O    8.389812   7.230694   6.031375   4.832385   3.490940
    15  C    4.407795   3.135957   2.458559   1.372932   2.394113
    16  C    5.685828   4.391082   3.657020   2.341047   2.670478
    17  C    6.407986   5.114501   4.158257   2.734218   2.279387
    18  O    7.807072   6.502286   5.590515   4.166424   3.601239
    19  H    3.372826   3.787534   3.377604   4.606000   5.166011
    20  H    1.089983   2.096287   3.465826   4.632412   5.817402
    21  H    2.063601   1.090043   2.207359   2.745532   3.993532
    22  H    4.943033   3.987229   2.762704   2.203535   1.090054
    23  H    4.116163   2.957224   2.693110   2.130101   3.405134
    24  H    6.338196   5.072796   4.529007   3.322589   3.759415
    25  H    8.383195   7.108461   6.043019   4.647806   3.931787
                   11         12         13         14         15
    11  C    0.000000
    12  C    1.582193   0.000000
    13  O    2.600603   1.433118   0.000000
    14  O    2.382306   1.120965   2.197527   0.000000
    15  C    2.803524   4.384393   5.200602   5.103030   0.000000
    16  C    2.416955   3.909133   4.999314   4.393366   1.311047
    17  C    1.417399   2.693291   3.920448   3.078791   2.310663
    18  O    2.461560   3.087604   4.471594   2.953865   3.591897
    19  H    6.408618   7.215927   6.927688   8.221683   5.682082
    20  H    6.979161   8.229111   8.224884   9.270780   5.110547
    21  H    4.959868   6.335107   6.599418   7.297248   2.960933
    22  H    2.048315   2.597237   2.470302   3.694023   3.374281
    23  H    3.892716   5.473706   6.266035   6.174735   1.090004
    24  H    3.393304   4.780568   5.961389   5.098205   2.071436
    25  H    2.726093   3.008022   4.439307   2.600894   4.195263
                   16         17         18         19         20
    16  C    0.000000
    17  C    1.329721   0.000000
    18  O    2.362775   1.434251   0.000000
    19  H    6.829424   7.146056   8.542219   0.000000
    20  H    6.357352   7.165049   8.522343   4.277493   0.000000
    21  H    4.101307   4.938777   6.234757   4.877455   2.382091
    22  H    3.759648   3.281369   4.498627   4.741339   5.894797
    23  H    2.074893   3.289035   4.436448   5.766280   4.682527
    24  H    1.090039   2.088004   2.538474   7.705969   6.899858
    25  H    3.047857   2.040873   1.050089   8.740222   9.174656
                   21         22         23         24         25
    21  H    0.000000
    22  H    4.396006   0.000000
    23  H    2.664401   4.304250   0.000000
    24  H    4.635499   4.848462   2.372603   0.000000
    25  H    6.966576   4.726231   5.058959   3.263791   0.000000
 Stoichiometry    C13H7F2O3(1-)
 Framework group  C1[X(C13H7F2O3)]
 Deg. of freedom    69
 Full point group                 C1      NOp   1
 Largest Abelian subgroup         C1      NOp   1
 Largest concise Abelian subgroup C1      NOp   1
                         Standard orientation:                         
 ---------------------------------------------------------------------
 Center     Atomic      Atomic             Coordinates (Angstroms)
 Number     Number       Type             X           Y           Z
 ---------------------------------------------------------------------
      1          9           0       -1.227892   -1.618418    1.555557
      2          6           0       -1.942119   -0.738278    0.661647
      3          6           0       -3.264311   -0.972871    0.542769
      4          6           0       -4.109145   -0.142934   -0.215527
      5          9           0       -5.439332   -0.384657   -0.315653
      6          6           0       -3.611369    0.937667   -0.865673
      7          6           0       -2.317997    1.176470   -0.786543
      8          6           0       -1.358598    0.361377   -0.010776
      9          6           0        0.031912    0.669242    0.021375
     10          6           0        1.084167   -0.341530   -0.224491
     11          6           0        2.369609   -0.133262   -0.136019
     12          6           0        3.354332   -1.339816   -0.415089
     13          8           0        2.859615   -2.500575   -1.094589
     14          8           0        4.430836   -1.327255   -0.102766
     15          6           0        0.514797    1.914876    0.337851
     16          6           0        1.802129    2.161070    0.369627
     17          6           0        2.708376    1.211248    0.158171
     18          8           0        4.090270    1.587320    0.235732
     19          1           0       -3.693443   -1.835676    1.052083
     20          1           0       -4.265652    1.593301   -1.440235
     21          1           0       -1.927548    2.035851   -1.331710
     22          1           0        0.758583   -1.343884   -0.502878
     23          1           0       -0.187237    2.716436    0.567541
     24          1           0        2.140304    3.176576    0.575953
     25          1           0        4.563539    1.029595    0.989155
 ---------------------------------------------------------------------
 Rotational constants (GHZ):      0.9167232      0.2073217      0.1821089
 Leave Link  202 at Mon Oct 29 14:18:26 2012, MaxMem=  268435456 cpu:       0.1
 (Enter /home/est863/Gaussian/g09/l301.exe)
 Standard basis: 6-31+G(d,p) (6D, 7F)
 Ernie: Thresh=  0.10000D-02 Tol=  0.10000D-05 Strict=F.
 There are   377 symmetry adapted basis functions of A   symmetry.
 Integral buffers will be    131072 words long.
 Raffenetti 2 integral format.
 Two-electron integral symmetry is turned on.
   377 basis functions,   625 primitive gaussians,   377 cartesian basis functions
    64 alpha electrons       64 beta electrons
       nuclear repulsion energy      1206.8201508048 Hartrees.
 IExCor=  402 DFT=T Ex+Corr=B3LYP ExCW=0 ScaHFX=  0.200000
 ScaDFX=  0.800000  0.720000  1.000000  0.810000 ScalE2=  1.000000  1.000000
 IRadAn=      0 IRanWt=     -1 IRanGd=            0 ICorTp=0
 NAtoms=   25 NActive=   25 NUniq=   25 SFac= 7.50D-01 NAtFMM=   80 NAOKFM=F Big=F
 Leave Link  301 at Mon Oct 29 14:18:28 2012, MaxMem=  268435456 cpu:       0.0
 (Enter /home/est863/Gaussian/g09/l302.exe)
 NPDir=0 NMtPBC=     1 NCelOv=     1 NCel=       1 NClECP=     1 NCelD=      1
         NCelK=      1 NCelE2=     1 NClLst=     1 CellRange=     0.0.
 One-electron integrals computed using PRISM.
 NBasis=   377 RedAO= T  NBF=   377
 NBsUse=   376 1.00D-06 NBFU=   376
 Precomputing XC quadrature grid using
 IXCGrd= 2 IRadAn=           0 IRanWt=          -1 IRanGd=           0 AccXCQ= 1.00D-10.
 NRdTot=    1620 NPtTot=      207114 NUsed=      218792 NTot=      218824
 NSgBfM=   374   374   374   374   374 NAtAll=    25    25.
 Leave Link  302 at Mon Oct 29 14:19:06 2012, MaxMem=  268435456 cpu:       1.1
 (Enter /home/est863/Gaussian/g09/l303.exe)
 DipDrv:  MaxL=1.
 Leave Link  303 at Mon Oct 29 14:19:15 2012, MaxMem=  268435456 cpu:       0.2
 (Enter /home/est863/Gaussian/g09/l401.exe)
 Harris functional with IExCor=  402 diagonalized for initial guess.
 ExpMin= 4.38D-02 ExpMax= 7.00D+03 ExpMxC= 1.05D+03 IAcc=2 IRadAn=         0 AccDes= 0.00D+00
 HarFok:  IExCor=  402 AccDes= 0.00D+00 IRadAn=         0 IDoV= 1
 ScaDFX=  1.000000  1.000000  1.000000  1.000000
 FoFCou: FMM=F IPFlag=           0 FMFlag=      100000 FMFlg1=           0
         NFxFlg=           0 DoJE=T BraDBF=F KetDBF=T FulRan=T
         Omega=  0.000000  0.000000  1.000000  0.000000  0.000000 ICntrl=     500 IOpCl=  0
         NMat0=    1 NMatS0=    1 NMatT0=    0 NMatD0=    1 NMtDS0=    0 NMtDT0=    0
         I1Cent=           4 NGrid=           0.
 Petite list used in FoFCou.
 Harris En= -925.233795908567    
 Initial guess orbital symmetries:
       Occupied  (A) (A) (A) (A) (A) (A) (A) (A) (A) (A) (A) (A)
                 (A) (A) (A) (A) (A) (A) (A) (A) (A) (A) (A) (A)
                 (A) (A) (A) (A) (A) (A) (A) (A) (A) (A) (A) (A)
                 (A) (A) (A) (A) (A) (A) (A) (A) (A) (A) (A) (A)
                 (A) (A) (A) (A) (A) (A) (A) (A) (A) (A) (A) (A)
                 (A) (A) (A) (A)
       Virtual   (A) (A) (A) (A) (A) (A) (A) (A) (A) (A) (A) (A)
                 (A) (A) (A) (A) (A) (A) (A) (A) (A) (A) (A) (A)
                 (A) (A) (A) (A) (A) (A) (A) (A) (A) (A) (A) (A)
                 (A) (A) (A) (A) (A) (A) (A) (A) (A) (A) (A) (A)
                 (A) (A) (A) (A) (A) (A) (A) (A) (A) (A) (A) (A)
                 (A) (A) (A) (A) (A) (A) (A) (A) (A) (A) (A) (A)
                 (A) (A) (A) (A) (A) (A) (A) (A) (A) (A) (A) (A)
                 (A) (A) (A) (A) (A) (A) (A) (A) (A) (A) (A) (A)
                 (A) (A) (A) (A) (A) (A) (A) (A) (A) (A) (A) (A)
                 (A) (A) (A) (A) (A) (A) (A) (A) (A) (A) (A) (A)
                 (A) (A) (A) (A) (A) (A) (A) (A) (A) (A) (A) (A)
                 (A) (A) (A) (A) (A) (A) (A) (A) (A) (A) (A) (A)
                 (A) (A) (A) (A) (A) (A) (A) (A) (A) (A) (A) (A)
                 (A) (A) (A) (A) (A) (A) (A) (A) (A) (A) (A) (A)
                 (A) (A) (A) (A) (A) (A) (A) (A) (A) (A) (A) (A)
                 (A) (A) (A) (A) (A) (A) (A) (A) (A) (A) (A) (A)
                 (A) (A) (A) (A) (A) (A) (A) (A) (A) (A) (A) (A)
                 (A) (A) (A) (A) (A) (A) (A) (A) (A) (A) (A) (A)
                 (A) (A) (A) (A) (A) (A) (A) (A) (A) (A) (A) (A)
                 (A) (A) (A) (A) (A) (A) (A) (A) (A) (A) (A) (A)
                 (A) (A) (A) (A) (A) (A) (A) (A) (A) (A) (A) (A)
                 (A) (A) (A) (A) (A) (A) (A) (A) (A) (A) (A) (A)
                 (A) (A) (A) (A) (A) (A) (A) (A) (A) (A) (A) (A)
                 (A) (A) (A) (A) (A) (A) (A) (A) (A) (A) (A) (A)
                 (A) (A) (A) (A) (A) (A) (A) (A) (A) (A) (A) (A)
                 (A) (A) (A) (A) (A) (A) (A) (A) (A) (A) (A) (A)
 The electronic state of the initial guess is 1-A.
 Leave Link  401 at Mon Oct 29 14:20:37 2012, MaxMem=  268435456 cpu:       9.1
 (Enter /home/est863/Gaussian/g09/l502.exe)
 Closed shell SCF:
 Requested convergence on RMS density matrix=1.00D-08 within 128 cycles.
 Requested convergence on MAX density matrix=1.00D-06.
 Requested convergence on             energy=1.00D-06.
 No special actions if energy rises.
 Using DIIS extrapolation, IDIIS=  1040.
 Integral symmetry usage will be decided dynamically.
       218554 words used for storage of precomputed grid.
 IEnd=      668149 IEndB=      668149 NGot=   268435456 MDV=   267926454
 LenX=   267926454 LenY=   267783884
 Fock matrices will be formed incrementally for  20 cycles.

 Cycle   1  Pass 1  IDiag  1:
 FoFCou: FMM=F IPFlag=           0 FMFlag=      100000 FMFlg1=           0
         NFxFlg=           0 DoJE=F BraDBF=F KetDBF=F FulRan=T
         Omega=  0.000000  0.000000  1.000000  0.000000  0.000000 ICntrl=       0 IOpCl=  0
         NMat0=    1 NMatS0=    1 NMatT0=    0 NMatD0=    1 NMtDS0=    0 NMtDT0=    0
         I1Cent=           0 NGrid=           0.
 Symmetry not used in FoFCou.
 E= -924.456823381285    
 DIIS: error= 2.77D-02 at cycle   1 NSaved=   1.
 NSaved= 1 IEnMin= 1 EnMin= -924.456823381285     IErMin= 1 ErrMin= 2.77D-02
 ErrMax= 2.77D-02 EMaxC= 1.00D-01 BMatC= 5.43D-01 BMatP= 5.43D-01
 IDIUse=3 WtCom= 7.23D-01 WtEn= 2.77D-01
 Coeff-Com:  0.100D+01
 Coeff-En:   0.100D+01
 Coeff:      0.100D+01
 Gap=     0.194 Goal=   None    Shift=    0.000
 GapD=    0.194 DampG=1.000 DampE=0.500 DampFc=0.5000 IDamp=-1.
 Damping current iteration by 5.00D-01
 RMSDP=4.74D+00 MaxDP=4.12D+02              OVMax= 9.97D-01

 Cycle   2  Pass 1  IDiag  1:
 RMSU=  1.64D+00    CP:  3.00D+00
 E= -923.342201854518     Delta-E=        1.114621526767 Rises=F Damp=T
 DIIS: error= 2.66D-02 at cycle   2 NSaved=   2.
 NSaved= 2 IEnMin= 1 EnMin= -924.456823381285     IErMin= 2 ErrMin= 2.66D-02
 ErrMax= 2.66D-02 EMaxC= 1.00D-01 BMatC= 3.87D-01 BMatP= 5.43D-01
 IDIUse=3 WtCom= 7.34D-01 WtEn= 2.66D-01
 Coeff-Com:  0.441D+00 0.559D+00
 Coeff-En:   0.793D+00 0.207D+00
 Coeff:      0.535D+00 0.465D+00
 Gap=     0.333 Goal=   None    Shift=    0.000
 RMSDP=2.35D+00 MaxDP=2.00D+02 DE= 1.11D+00 OVMax= 7.90D-01

 Cycle   3  Pass 1  IDiag  1:
 RMSU=  3.50D-02    CP:  1.25D+00  3.92D-03
 E= -924.453968113272     Delta-E=       -1.111766258754 Rises=F Damp=F
 DIIS: error= 2.72D-02 at cycle   3 NSaved=   3.
 NSaved= 3 IEnMin= 1 EnMin= -924.456823381285     IErMin= 2 ErrMin= 2.66D-02
 ErrMax= 2.72D-02 EMaxC= 1.00D-01 BMatC= 4.92D-01 BMatP= 3.87D-01
 IDIUse=2 WtCom= 0.00D+00 WtEn= 1.00D+00
 EnCoef did     3 forward-backward iterations
 Coeff-En:   0.358D+00 0.179D+00 0.463D+00
 Coeff:      0.358D+00 0.179D+00 0.463D+00
 Gap=     0.319 Goal=   None    Shift=    0.000
 RMSDP=1.08D-01 MaxDP=1.44D+01 DE=-1.11D+00 OVMax= 8.64D-01

 Cycle   4  Pass 1  IDiag  1:
 RMSU=  7.38D-02    CP:  1.46D+00  2.02D-03  8.62D-01
 E= -922.817484270250     Delta-E=        1.636483843022 Rises=F Damp=F
 DIIS: error= 5.46D-02 at cycle   4 NSaved=   4.
 NSaved= 4 IEnMin= 1 EnMin= -924.456823381285     IErMin= 2 ErrMin= 2.66D-02
 ErrMax= 5.46D-02 EMaxC= 1.00D-01 BMatC= 1.36D+00 BMatP= 3.87D-01
 IDIUse=2 WtCom= 0.00D+00 WtEn= 1.00D+00
 EnCoef did     1 forward-backward iterations
 Coeff-En:   0.203D+00 0.000D+00 0.565D+00 0.232D+00
 Coeff:      0.203D+00 0.000D+00 0.565D+00 0.232D+00
 Gap=     0.036 Goal=   None    Shift=    0.000
 RMSDP=1.18D-01 MaxDP=1.90D+01 DE= 1.64D+00 OVMax= 9.86D-01

 Cycle   5  Pass 1  IDiag  1:
 RMSU=  1.83D-02    CP:  9.56D-01  7.44D-04  2.63D-01  9.81D-02
 E= -924.924949050102     Delta-E=       -2.107464779852 Rises=F Damp=F
 DIIS: error= 6.00D-03 at cycle   5 NSaved=   5.
 NSaved= 5 IEnMin= 5 EnMin= -924.924949050102     IErMin= 5 ErrMin= 6.00D-03
 ErrMax= 6.00D-03 EMaxC= 1.00D-01 BMatC= 4.31D-02 BMatP= 3.87D-01
 IDIUse=3 WtCom= 9.40D-01 WtEn= 6.00D-02
 Coeff-Com:  0.786D-01 0.127D+00 0.230D+00 0.516D-01 0.513D+00
 Coeff-En:   0.000D+00 0.000D+00 0.000D+00 0.000D+00 0.100D+01
 Coeff:      0.739D-01 0.119D+00 0.216D+00 0.485D-01 0.542D+00
 Gap=     0.143 Goal=   None    Shift=    0.000
 RMSDP=2.08D-02 MaxDP=1.70D+00 DE=-2.11D+00 OVMax= 1.00D-01

 Cycle   6  Pass 1  IDiag  1:
 RMSU=  8.16D-03    CP:  9.68D-01  4.91D-04  4.43D-01  8.28D-02  4.32D-01
 E= -924.922142975162     Delta-E=        0.002806074941 Rises=F Damp=F
 DIIS: error= 6.37D-03 at cycle   6 NSaved=   6.
 NSaved= 6 IEnMin= 5 EnMin= -924.924949050102     IErMin= 5 ErrMin= 6.00D-03
 ErrMax= 6.37D-03 EMaxC= 1.00D-01 BMatC= 4.18D-02 BMatP= 4.31D-02
 IDIUse=3 WtCom= 9.40D-01 WtEn= 6.00D-02
 Coeff-Com: -0.276D-01 0.679D-01 0.564D-02 0.122D-01 0.413D+00 0.529D+00
 Coeff-En:   0.000D+00 0.000D+00 0.000D+00 0.000D+00 0.514D+00 0.486D+00
 Coeff:     -0.260D-01 0.638D-01 0.530D-02 0.115D-01 0.419D+00 0.527D+00
 Gap=     0.105 Goal=   None    Shift=    0.000
 RMSDP=1.05D-02 MaxDP=8.13D-01 DE= 2.81D-03 OVMax= 6.91D-02

 Cycle   7  Pass 1  IDiag  1:
 RMSU=  3.00D-03    CP:  9.39D-01  7.64D-04  3.20D-01  8.93D-02  6.57D-01
                    CP:  7.38D-01
 E= -924.963583091316     Delta-E=       -0.041440116154 Rises=F Damp=F
 DIIS: error= 2.97D-03 at cycle   7 NSaved=   7.
 NSaved= 7 IEnMin= 7 EnMin= -924.963583091316     IErMin= 7 ErrMin= 2.97D-03
 ErrMax= 2.97D-03 EMaxC= 1.00D-01 BMatC= 4.92D-03 BMatP= 4.18D-02
 IDIUse=3 WtCom= 9.70D-01 WtEn= 2.97D-02
 Coeff-Com: -0.361D-01 0.341D-01-0.460D-01 0.552D-02 0.215D+00 0.331D+00
 Coeff-Com:  0.497D+00
 Coeff-En:   0.000D+00 0.000D+00 0.000D+00 0.000D+00 0.000D+00 0.000D+00
 Coeff-En:   0.100D+01
 Coeff:     -0.350D-01 0.331D-01-0.447D-01 0.536D-02 0.208D+00 0.321D+00
 Coeff:      0.512D+00
 Gap=     0.090 Goal=   None    Shift=    0.000
 RMSDP=5.36D-03 MaxDP=5.21D-01 DE=-4.14D-02 OVMax= 2.34D-02

 Cycle   8  Pass 1  IDiag  1:
 RMSU=  1.98D-03    CP:  9.58D-01  7.97D-04  3.34D-01  1.02D-01  8.01D-01
                    CP:  7.75D-01  1.04D+00
 E= -924.968027645500     Delta-E=       -0.004444554184 Rises=F Damp=F
 DIIS: error= 1.46D-03 at cycle   8 NSaved=   8.
 NSaved= 8 IEnMin= 8 EnMin= -924.968027645500     IErMin= 8 ErrMin= 1.46D-03
 ErrMax= 1.46D-03 EMaxC= 1.00D-01 BMatC= 1.07D-03 BMatP= 4.92D-03
 IDIUse=3 WtCom= 9.85D-01 WtEn= 1.46D-02
 Coeff-Com: -0.203D-01 0.113D-01-0.365D-01 0.404D-02 0.251D-01 0.446D-01
 Coeff-Com:  0.259D+00 0.713D+00
 Coeff-En:   0.000D+00 0.000D+00 0.000D+00 0.000D+00 0.000D+00 0.000D+00
 Coeff-En:   0.000D+00 0.100D+01
 Coeff:     -0.200D-01 0.112D-01-0.360D-01 0.398D-02 0.248D-01 0.440D-01
 Coeff:      0.255D+00 0.717D+00
 Gap=     0.086 Goal=   None    Shift=    0.000
 RMSDP=1.97D-03 MaxDP=1.45D-01 DE=-4.44D-03 OVMax= 9.05D-03

 Cycle   9  Pass 1  IDiag  1:
 RMSU=  9.42D-04    CP:  9.59D-01  8.12D-04  3.24D-01  1.02D-01  8.36D-01
                    CP:  7.60D-01  1.23D+00  1.20D+00
 E= -924.968876244095     Delta-E=       -0.000848598595 Rises=F Damp=F
 DIIS: error= 6.96D-04 at cycle   9 NSaved=   9.
 NSaved= 9 IEnMin= 9 EnMin= -924.968876244095     IErMin= 9 ErrMin= 6.96D-04
 ErrMax= 6.96D-04 EMaxC= 1.00D-01 BMatC= 2.39D-04 BMatP= 1.07D-03
 IDIUse=3 WtCom= 9.93D-01 WtEn= 6.96D-03
 Coeff-Com: -0.616D-02 0.263D-02-0.155D-01 0.250D-02-0.276D-01-0.472D-01
 Coeff-Com:  0.262D-01 0.454D+00 0.611D+00
 Coeff-En:   0.000D+00 0.000D+00 0.000D+00 0.000D+00 0.000D+00 0.000D+00
 Coeff-En:   0.000D+00 0.000D+00 0.100D+01
 Coeff:     -0.612D-02 0.261D-02-0.154D-01 0.248D-02-0.274D-01-0.469D-01
 Coeff:      0.260D-01 0.451D+00 0.614D+00
 Gap=     0.083 Goal=   None    Shift=    0.000
 RMSDP=1.40D-03 MaxDP=1.34D-01 DE=-8.49D-04 OVMax= 6.95D-03

 Cycle  10  Pass 1  IDiag  1:
 RMSU=  3.11D-04    CP:  9.64D-01  8.42D-04  3.24D-01  1.05D-01  8.73D-01
                    CP:  7.69D-01  1.26D+00  1.42D+00  1.04D+00
 E= -924.969123995463     Delta-E=       -0.000247751368 Rises=F Damp=F
 DIIS: error= 2.40D-04 at cycle  10 NSaved=  10.
 NSaved=10 IEnMin=10 EnMin= -924.969123995463     IErMin=10 ErrMin= 2.40D-04
 ErrMax= 2.40D-04 EMaxC= 1.00D-01 BMatC= 3.78D-05 BMatP= 2.39D-04
 IDIUse=3 WtCom= 9.98D-01 WtEn= 2.40D-03
 Coeff-Com: -0.531D-04-0.118D-03-0.236D-02 0.729D-03-0.130D-01-0.264D-01
 Coeff-Com: -0.439D-01 0.268D-01 0.276D+00 0.782D+00
 Coeff-En:   0.000D+00 0.000D+00 0.000D+00 0.000D+00 0.000D+00 0.000D+00
 Coeff-En:   0.000D+00 0.000D+00 0.000D+00 0.100D+01
 Coeff:     -0.530D-04-0.118D-03-0.235D-02 0.727D-03-0.130D-01-0.263D-01
 Coeff:     -0.438D-01 0.267D-01 0.275D+00 0.783D+00
 Gap=     0.081 Goal=   None    Shift=    0.000
 RMSDP=6.90D-04 MaxDP=4.73D-02 DE=-2.48D-04 OVMax= 3.19D-03

 Cycle  11  Pass 1  IDiag  1:
 RMSU=  1.53D-04    CP:  9.65D-01  8.58D-04  3.23D-01  1.06D-01  8.90D-01
                    CP:  7.61D-01  1.31D+00  1.50D+00  1.28D+00  1.04D+00
 E= -924.969159244001     Delta-E=       -0.000035248538 Rises=F Damp=F
 DIIS: error= 5.58D-05 at cycle  11 NSaved=  11.
 NSaved=11 IEnMin=11 EnMin= -924.969159244001     IErMin=11 ErrMin= 5.58D-05
 ErrMax= 5.58D-05 EMaxC= 1.00D-01 BMatC= 4.03D-06 BMatP= 3.78D-05
 IDIUse=1 WtCom= 1.00D+00 WtEn= 0.00D+00
 Coeff-Com:  0.521D-03-0.108D-03 0.140D-03 0.164D-03-0.332D-02-0.100D-01
 Coeff-Com: -0.271D-01-0.304D-01 0.986D-01 0.468D+00 0.504D+00
 Coeff:      0.521D-03-0.108D-03 0.140D-03 0.164D-03-0.332D-02-0.100D-01
 Coeff:     -0.271D-01-0.304D-01 0.986D-01 0.468D+00 0.504D+00
 Gap=     0.080 Goal=   None    Shift=    0.000
 RMSDP=1.44D-04 MaxDP=1.32D-02 DE=-3.52D-05 OVMax= 6.40D-04

 Cycle  12  Pass 1  IDiag  1:
 RMSU=  3.99D-05    CP:  9.65D-01  8.60D-04  3.23D-01  1.06D-01  8.93D-01
                    CP:  7.61D-01  1.31D+00  1.52D+00  1.29D+00  1.15D+00
                    CP:  9.14D-01
 E= -924.969163189833     Delta-E=       -0.000003945831 Rises=F Damp=F
 DIIS: error= 1.00D-05 at cycle  12 NSaved=  12.
 NSaved=12 IEnMin=12 EnMin= -924.969163189833     IErMin=12 ErrMin= 1.00D-05
 ErrMax= 1.00D-05 EMaxC= 1.00D-01 BMatC= 2.04D-07 BMatP= 4.03D-06
 IDIUse=1 WtCom= 1.00D+00 WtEn= 0.00D+00
 Coeff-Com:  0.188D-03-0.199D-05 0.296D-03-0.520D-05-0.717D-04-0.198D-02
 Coeff-Com: -0.741D-02-0.154D-01 0.181D-01 0.140D+00 0.234D+00 0.632D+00
 Coeff:      0.188D-03-0.199D-05 0.296D-03-0.520D-05-0.717D-04-0.198D-02
 Coeff:     -0.741D-02-0.154D-01 0.181D-01 0.140D+00 0.234D+00 0.632D+00
 Gap=     0.080 Goal=   None    Shift=    0.000
 RMSDP=3.62D-05 MaxDP=4.61D-03 DE=-3.95D-06 OVMax= 1.60D-04

 Cycle  13  Pass 1  IDiag  1:
 RMSU=  1.51D-05    CP:  9.65D-01  8.61D-04  3.23D-01  1.06D-01  8.94D-01
                    CP:  7.61D-01  1.31D+00  1.52D+00  1.30D+00  1.14D+00
                    CP:  9.29D-01  7.89D-01
 E= -924.969163353578     Delta-E=       -0.000000163745 Rises=F Damp=F
 DIIS: error= 5.62D-06 at cycle  13 NSaved=  13.
 NSaved=13 IEnMin=13 EnMin= -924.969163353578     IErMin=13 ErrMin= 5.62D-06
 ErrMax= 5.62D-06 EMaxC= 1.00D-01 BMatC= 3.89D-08 BMatP= 2.04D-07
 IDIUse=1 WtCom= 1.00D+00 WtEn= 0.00D+00
 Coeff-Com:  0.624D-04-0.650D-05 0.175D-03-0.488D-05 0.164D-03-0.577D-03
 Coeff-Com: -0.234D-02-0.533D-02 0.553D-02 0.490D-01 0.908D-01 0.340D+00
 Coeff-Com:  0.522D+00
 Coeff:      0.624D-04-0.650D-05 0.175D-03-0.488D-05 0.164D-03-0.577D-03
 Coeff:     -0.234D-02-0.533D-02 0.553D-02 0.490D-01 0.908D-01 0.340D+00
 Coeff:      0.522D+00
 Gap=     0.080 Goal=   None    Shift=    0.000
 RMSDP=1.37D-05 MaxDP=2.25D-03 DE=-1.64D-07 OVMax= 5.20D-05

 Cycle  14  Pass 1  IDiag  1:
 RMSU=  4.55D-06    CP:  9.65D-01  8.61D-04  3.23D-01  1.06D-01  8.94D-01
                    CP:  7.61D-01  1.31D+00  1.52D+00  1.30D+00  1.14D+00
                    CP:  9.23D-01  8.53D-01  8.40D-01
 E= -924.969163384191     Delta-E=       -0.000000030614 Rises=F Damp=F
 DIIS: error= 3.25D-06 at cycle  14 NSaved=  14.
 NSaved=14 IEnMin=14 EnMin= -924.969163384191     IErMin=14 ErrMin= 3.25D-06
 ErrMax= 3.25D-06 EMaxC= 1.00D-01 BMatC= 6.26D-09 BMatP= 3.89D-08
 IDIUse=1 WtCom= 1.00D+00 WtEn= 0.00D+00
 Coeff-Com:  0.521D-05-0.813D-05 0.473D-04-0.140D-05 0.542D-04-0.617D-04
 Coeff-Com: -0.107D-03 0.418D-03 0.154D-02 0.539D-02 0.667D-02 0.565D-01
 Coeff-Com:  0.227D+00 0.703D+00
 Coeff:      0.521D-05-0.813D-05 0.473D-04-0.140D-05 0.542D-04-0.617D-04
 Coeff:     -0.107D-03 0.418D-03 0.154D-02 0.539D-02 0.667D-02 0.565D-01
 Coeff:      0.227D+00 0.703D+00
 Gap=     0.080 Goal=   None    Shift=    0.000
 RMSDP=4.63D-06 MaxDP=5.29D-04 DE=-3.06D-08 OVMax= 2.33D-05

 Cycle  15  Pass 1  IDiag  1:
 RMSU=  1.82D-06    CP:  9.65D-01  8.61D-04  3.23D-01  1.06D-01  8.94D-01
                    CP:  7.61D-01  1.31D+00  1.52D+00  1.30D+00  1.14D+00
                    CP:  9.25D-01  8.41D-01  9.23D-01  9.77D-01
 E= -924.969163389464     Delta-E=       -0.000000005273 Rises=F Damp=F
 DIIS: error= 1.23D-06 at cycle  15 NSaved=  15.
 NSaved=15 IEnMin=15 EnMin= -924.969163389464     IErMin=15 ErrMin= 1.23D-06
 ErrMax= 1.23D-06 EMaxC= 1.00D-01 BMatC= 1.01D-09 BMatP= 6.26D-09
 IDIUse=1 WtCom= 1.00D+00 WtEn= 0.00D+00
 Coeff-Com:  0.161D-06-0.135D-05 0.145D-04-0.169D-05 0.104D-04 0.929D-05
 Coeff-Com:  0.121D-03 0.827D-03 0.746D-03-0.495D-03-0.384D-02 0.228D-02
 Coeff-Com:  0.743D-01 0.366D+00 0.560D+00
 Coeff:      0.161D-06-0.135D-05 0.145D-04-0.169D-05 0.104D-04 0.929D-05
 Coeff:      0.121D-03 0.827D-03 0.746D-03-0.495D-03-0.384D-02 0.228D-02
 Coeff:      0.743D-01 0.366D+00 0.560D+00
 Gap=     0.081 Goal=   None    Shift=    0.000
 RMSDP=2.23D-06 MaxDP=1.63D-04 DE=-5.27D-09 OVMax= 7.54D-06

 Cycle  16  Pass 1  IDiag  1:
 RMSU=  5.12D-07    CP:  9.65D-01  8.61D-04  3.23D-01  1.06D-01  8.94D-01
                    CP:  7.61D-01  1.31D+00  1.52D+00  1.30D+00  1.14D+00
                    CP:  9.25D-01  8.45D-01  9.33D-01  1.05D+00  1.08D+00
 E= -924.969163390366     Delta-E=       -0.000000000902 Rises=F Damp=F
 DIIS: error= 4.62D-07 at cycle  16 NSaved=  16.
 NSaved=16 IEnMin=16 EnMin= -924.969163390366     IErMin=16 ErrMin= 4.62D-07
 ErrMax= 4.62D-07 EMaxC= 1.00D-01 BMatC= 1.04D-10 BMatP= 1.01D-09
 IDIUse=1 WtCom= 1.00D+00 WtEn= 0.00D+00
 Coeff-Com:  0.832D-06-0.455D-06-0.623D-06-0.831D-07-0.469D-05 0.135D-04
 Coeff-Com:  0.430D-04 0.268D-03 0.219D-03-0.578D-03-0.219D-02-0.834D-02
 Coeff-Com: -0.149D-01 0.112D-01 0.247D+00 0.767D+00
 Coeff:      0.832D-06-0.455D-06-0.623D-06-0.831D-07-0.469D-05 0.135D-04
 Coeff:      0.430D-04 0.268D-03 0.219D-03-0.578D-03-0.219D-02-0.834D-02
 Coeff:     -0.149D-01 0.112D-01 0.247D+00 0.767D+00
 Gap=     0.081 Goal=   None    Shift=    0.000
 RMSDP=9.19D-07 MaxDP=6.70D-05 DE=-9.02D-10 OVMax= 5.50D-06

 Cycle  17  Pass 1  IDiag  1:
 RMSU=  1.66D-07    CP:  9.65D-01  8.61D-04  3.23D-01  1.06D-01  8.94D-01
                    CP:  7.61D-01  1.31D+00  1.52D+00  1.30D+00  1.14D+00
                    CP:  9.24D-01  8.44D-01  9.47D-01  1.06D+00  1.17D+00
                    CP:  1.22D+00
 E= -924.969163390538     Delta-E=       -0.000000000172 Rises=F Damp=F
 DIIS: error= 4.90D-08 at cycle  17 NSaved=  17.
 NSaved=17 IEnMin=17 EnMin= -924.969163390538     IErMin=17 ErrMin= 4.90D-08
 ErrMax= 4.90D-08 EMaxC= 1.00D-01 BMatC= 4.49D-12 BMatP= 1.04D-10
 IDIUse=1 WtCom= 1.00D+00 WtEn= 0.00D+00
 Coeff-Com:  0.532D-06-0.408D-06-0.905D-06 0.996D-07-0.248D-05 0.406D-05
 Coeff-Com:  0.976D-05 0.624D-04 0.567D-04-0.152D-03-0.611D-03-0.319D-02
 Coeff-Com: -0.104D-01-0.180D-01 0.593D-01 0.333D+00 0.640D+00
 Coeff:      0.532D-06-0.408D-06-0.905D-06 0.996D-07-0.248D-05 0.406D-05
 Coeff:      0.976D-05 0.624D-04 0.567D-04-0.152D-03-0.611D-03-0.319D-02
 Coeff:     -0.104D-01-0.180D-01 0.593D-01 0.333D+00 0.640D+00
 Gap=     0.081 Goal=   None    Shift=    0.000
 RMSDP=2.35D-07 MaxDP=1.95D-05 DE=-1.72D-10 OVMax= 1.19D-06

 Cycle  18  Pass 1  IDiag  1:
 RMSU=  5.34D-08    CP:  9.65D-01  8.61D-04  3.23D-01  1.06D-01  8.94D-01
                    CP:  7.61D-01  1.31D+00  1.52D+00  1.30D+00  1.14D+00
                    CP:  9.24D-01  8.44D-01  9.45D-01  1.08D+00  1.20D+00
                    CP:  1.24D+00  9.42D-01
 E= -924.969163390512     Delta-E=        0.000000000026 Rises=F Damp=F
 DIIS: error= 2.64D-08 at cycle  18 NSaved=  18.
 NSaved=18 IEnMin=17 EnMin= -924.969163390538     IErMin=18 ErrMin= 2.64D-08
 ErrMax= 2.64D-08 EMaxC= 1.00D-01 BMatC= 1.04D-12 BMatP= 4.49D-12
 IDIUse=1 WtCom= 1.00D+00 WtEn= 0.00D+00
 Coeff-Com:  0.200D-06-0.134D-06-0.403D-06 0.625D-07-0.571D-06 0.337D-06
 Coeff-Com:  0.245D-07 0.156D-06 0.477D-05 0.323D-05-0.392D-04-0.587D-03
 Coeff-Com: -0.385D-02-0.120D-01-0.404D-02 0.820D-01 0.371D+00 0.568D+00
 Coeff:      0.200D-06-0.134D-06-0.403D-06 0.625D-07-0.571D-06 0.337D-06
 Coeff:      0.245D-07 0.156D-06 0.477D-05 0.323D-05-0.392D-04-0.587D-03
 Coeff:     -0.385D-02-0.120D-01-0.404D-02 0.820D-01 0.371D+00 0.568D+00
 Gap=     0.081 Goal=   None    Shift=    0.000
 RMSDP=8.67D-08 MaxDP=6.32D-06 DE= 2.64D-11 OVMax= 4.53D-07

 Cycle  19  Pass 1  IDiag  1:
 RMSU=  2.12D-08    CP:  9.65D-01  8.61D-04  3.23D-01  1.06D-01  8.94D-01
                    CP:  7.61D-01  1.31D+00  1.52D+00  1.30D+00  1.14D+00
                    CP:  9.24D-01  8.44D-01  9.46D-01  1.08D+00  1.21D+00
                    CP:  1.24D+00  1.03D+00  1.17D+00
 E= -924.969163390498     Delta-E=        0.000000000014 Rises=F Damp=F
 DIIS: error= 6.82D-09 at cycle  19 NSaved=  19.
 NSaved=19 IEnMin=17 EnMin= -924.969163390538     IErMin=19 ErrMin= 6.82D-09
 ErrMax= 6.82D-09 EMaxC= 1.00D-01 BMatC= 5.99D-14 BMatP= 1.04D-12
 IDIUse=1 WtCom= 1.00D+00 WtEn= 0.00D+00
 Coeff-Com:  0.225D-07-0.498D-08-0.117D-06 0.706D-08-0.357D-07-0.254D-06
 Coeff-Com: -0.547D-06-0.549D-05-0.414D-05 0.107D-04 0.370D-04 0.667D-04
 Coeff-Com: -0.538D-03-0.329D-02-0.896D-02-0.872D-03 0.934D-01 0.265D+00
 Coeff-Com:  0.655D+00
 Coeff:      0.225D-07-0.498D-08-0.117D-06 0.706D-08-0.357D-07-0.254D-06
 Coeff:     -0.547D-06-0.549D-05-0.414D-05 0.107D-04 0.370D-04 0.667D-04
 Coeff:     -0.538D-03-0.329D-02-0.896D-02-0.872D-03 0.934D-01 0.265D+00
 Coeff:      0.655D+00
 Gap=     0.081 Goal=   None    Shift=    0.000
 RMSDP=3.12D-08 MaxDP=1.73D-06 DE= 1.36D-11 OVMax= 1.56D-07

 Cycle  20  Pass 1  IDiag  1:
 Restarting incremental Fock formation.
 E= -924.969163390482     Delta-E=        0.000000000016 Rises=F Damp=F
 DIIS: error= 3.31D-09 at cycle  20 NSaved=  20.
 NSaved=20 IEnMin=17 EnMin= -924.969163390538     IErMin=20 ErrMin= 3.31D-09
 ErrMax= 3.31D-09 EMaxC= 1.00D-01 BMatC= 8.67D-15 BMatP= 5.99D-14
 IDIUse=1 WtCom= 1.00D+00 WtEn= 0.00D+00
 Coeff-Com: -0.107D-07 0.218D-08-0.164D-07 0.695D-08 0.487D-07-0.166D-06
 Coeff-Com: -0.457D-06-0.307D-05-0.173D-05 0.639D-05 0.266D-04 0.990D-04
 Coeff-Com:  0.117D-03-0.475D-03-0.394D-02-0.800D-02 0.129D-01 0.846D-01
 Coeff-Com:  0.327D+00 0.588D+00
 Coeff:     -0.107D-07 0.218D-08-0.164D-07 0.695D-08 0.487D-07-0.166D-06
 Coeff:     -0.457D-06-0.307D-05-0.173D-05 0.639D-05 0.266D-04 0.990D-04
 Coeff:      0.117D-03-0.475D-03-0.394D-02-0.800D-02 0.129D-01 0.846D-01
 Coeff:      0.327D+00 0.588D+00
 Gap=     0.081 Goal=   None    Shift=    0.000
 RMSDP=3.33D-08 MaxDP=1.98D-06 DE= 1.64D-11 OVMax= 4.03D-08

 Cycle  21  Pass 1  IDiag  1:
 RMSU=  2.35D-08    CP:  1.00D+00
 E= -924.969163390440     Delta-E=        0.000000000042 Rises=F Damp=F
 DIIS: error= 1.25D-09 at cycle  21 NSaved=  20.
 NSaved=20 IEnMin=16 EnMin= -924.969163390538     IErMin=20 ErrMin= 1.25D-09
 ErrMax= 1.25D-09 EMaxC= 1.00D-01 BMatC= 1.43D-15 BMatP= 8.67D-15
 IDIUse=1 WtCom= 1.00D+00 WtEn= 0.00D+00
 Large coefficients: NSaved= 20 BigCof=    0.00 CofMax=   10.00 Det=-7.88D-15
 Inversion failed.  Reducing to 19 matrices.
 Large coefficients: NSaved= 19 BigCof=    0.00 CofMax=   10.00 Det=-7.91D-15
 Inversion failed.  Reducing to 18 matrices.
 Large coefficients: NSaved= 18 BigCof=    0.00 CofMax=   10.00 Det=-7.92D-15
 Inversion failed.  Reducing to 17 matrices.
 Large coefficients: NSaved= 17 BigCof=    0.00 CofMax=   10.00 Det=-8.03D-15
 Inversion failed.  Reducing to 16 matrices.
 Large coefficients: NSaved= 16 BigCof=    0.00 CofMax=   10.00 Det=-8.24D-15
 Inversion failed.  Reducing to 15 matrices.
 Coeff-Com: -0.190D-06-0.859D-06-0.322D-06-0.435D-07 0.482D-05 0.166D-04
 Coeff-Com:  0.546D-04 0.822D-04-0.318D-03-0.217D-02-0.342D-02 0.765D-02
 Coeff-Com:  0.655D-01 0.277D+00 0.656D+00
 Coeff:     -0.190D-06-0.859D-06-0.322D-06-0.435D-07 0.482D-05 0.166D-04
 Coeff:      0.546D-04 0.822D-04-0.318D-03-0.217D-02-0.342D-02 0.765D-02
 Coeff:      0.655D-01 0.277D+00 0.656D+00
 Gap=     0.081 Goal=   None    Shift=    0.000
 RMSDP=1.93D-08 MaxDP=1.14D-06 DE= 4.18D-11 OVMax= 1.82D-08

 Cycle  22  Pass 1  IDiag  1:
 RMSU=  3.28D-09    CP:  1.00D+00  1.56D+00
 E= -924.969163390517     Delta-E=       -0.000000000077 Rises=F Damp=F
 DIIS: error= 4.54D-10 at cycle  22 NSaved=  16.
 NSaved=16 IEnMin=11 EnMin= -924.969163390538     IErMin=16 ErrMin= 4.54D-10
 ErrMax= 4.54D-10 EMaxC= 1.00D-01 BMatC= 1.08D-16 BMatP= 1.43D-15
 IDIUse=1 WtCom= 1.00D+00 WtEn= 0.00D+00
 Large coefficients: NSaved= 16 BigCof=    0.00 CofMax=   10.00 Det=-8.07D-16
 Inversion failed.  Reducing to 15 matrices.
 Coeff-Com:  0.489D-08-0.650D-07-0.101D-05 0.419D-07 0.524D-05 0.370D-04
 Coeff-Com:  0.136D-03 0.889D-04-0.861D-03-0.315D-02-0.376D-02 0.158D-02
 Coeff-Com:  0.538D-01 0.271D+00 0.681D+00
 Coeff:      0.489D-08-0.650D-07-0.101D-05 0.419D-07 0.524D-05 0.370D-04
 Coeff:      0.136D-03 0.889D-04-0.861D-03-0.315D-02-0.376D-02 0.158D-02
 Coeff:      0.538D-01 0.271D+00 0.681D+00
 Gap=     0.081 Goal=   None    Shift=    0.000
 RMSDP=5.18D-09 MaxDP=3.16D-07 DE=-7.69D-11 OVMax= 7.20D-09

 SCF Done:  E(RB3LYP) =  -924.969163391     A.U. after   22 cycles
             Convg  =    0.5182D-08             -V/T =  2.0081
 KE= 9.175025793615D+02 PE=-4.595452444374D+03 EE= 1.546160550817D+03
 Leave Link  502 at Mon Oct 29 15:27:48 2012, MaxMem=  268435456 cpu:    1023.0
 (Enter /home/est863/Gaussian/g09/l601.exe)
 Copying SCF densities to generalized density rwf, IOpCl= 0 IROHF=0.

 **********************************************************************

            Population analysis using the SCF density.

 **********************************************************************

 Orbital symmetries:
       Occupied  (A) (A) (A) (A) (A) (A) (A) (A) (A) (A) (A) (A)
                 (A) (A) (A) (A) (A) (A) (A) (A) (A) (A) (A) (A)
                 (A) (A) (A) (A) (A) (A) (A) (A) (A) (A) (A) (A)
                 (A) (A) (A) (A) (A) (A) (A) (A) (A) (A) (A) (A)
                 (A) (A) (A) (A) (A) (A) (A) (A) (A) (A) (A) (A)
                 (A) (A) (A) (A)
       Virtual   (A) (A) (A) (A) (A) (A) (A) (A) (A) (A) (A) (A)
                 (A) (A) (A) (A) (A) (A) (A) (A) (A) (A) (A) (A)
                 (A) (A) (A) (A) (A) (A) (A) (A) (A) (A) (A) (A)
                 (A) (A) (A) (A) (A) (A) (A) (A) (A) (A) (A) (A)
                 (A) (A) (A) (A) (A) (A) (A) (A) (A) (A) (A) (A)
                 (A) (A) (A) (A) (A) (A) (A) (A) (A) (A) (A) (A)
                 (A) (A) (A) (A) (A) (A) (A) (A) (A) (A) (A) (A)
                 (A) (A) (A) (A) (A) (A) (A) (A) (A) (A) (A) (A)
                 (A) (A) (A) (A) (A) (A) (A) (A) (A) (A) (A) (A)
                 (A) (A) (A) (A) (A) (A) (A) (A) (A) (A) (A) (A)
                 (A) (A) (A) (A) (A) (A) (A) (A) (A) (A) (A) (A)
                 (A) (A) (A) (A) (A) (A) (A) (A) (A) (A) (A) (A)
                 (A) (A) (A) (A) (A) (A) (A) (A) (A) (A) (A) (A)
                 (A) (A) (A) (A) (A) (A) (A) (A) (A) (A) (A) (A)
                 (A) (A) (A) (A) (A) (A) (A) (A) (A) (A) (A) (A)
                 (A) (A) (A) (A) (A) (A) (A) (A) (A) (A) (A) (A)
                 (A) (A) (A) (A) (A) (A) (A) (A) (A) (A) (A) (A)
                 (A) (A) (A) (A) (A) (A) (A) (A) (A) (A) (A) (A)
                 (A) (A) (A) (A) (A) (A) (A) (A) (A) (A) (A) (A)
                 (A) (A) (A) (A) (A) (A) (A) (A) (A) (A) (A) (A)
                 (A) (A) (A) (A) (A) (A) (A) (A) (A) (A) (A) (A)
                 (A) (A) (A) (A) (A) (A) (A) (A) (A) (A) (A) (A)
                 (A) (A) (A) (A) (A) (A) (A) (A) (A) (A) (A) (A)
                 (A) (A) (A) (A) (A) (A) (A) (A) (A) (A) (A) (A)
                 (A) (A) (A) (A) (A) (A) (A) (A) (A) (A) (A) (A)
                 (A) (A) (A) (A) (A) (A) (A) (A) (A) (A) (A) (A)
 The electronic state is 1-A.
 Alpha  occ. eigenvalues --  -24.66060 -24.63136 -19.05989 -18.95733 -18.90178
 Alpha  occ. eigenvalues --  -10.21073 -10.20693 -10.14175 -10.13773 -10.13382
 Alpha  occ. eigenvalues --  -10.13238 -10.12502 -10.12002 -10.09863 -10.08892
 Alpha  occ. eigenvalues --  -10.07493 -10.07363 -10.07115  -1.16581  -1.10933
 Alpha  occ. eigenvalues --   -0.92525  -0.90310  -0.81109  -0.77004  -0.70856
 Alpha  occ. eigenvalues --   -0.70390  -0.69770  -0.66085  -0.62768  -0.56711
 Alpha  occ. eigenvalues --   -0.54928  -0.50920  -0.49770  -0.48674  -0.44671
 Alpha  occ. eigenvalues --   -0.44157  -0.41896  -0.40955  -0.40789  -0.37842
 Alpha  occ. eigenvalues --   -0.37388  -0.36719  -0.35978  -0.35793  -0.34658
 Alpha  occ. eigenvalues --   -0.32156  -0.30973  -0.30267  -0.29818  -0.29488
 Alpha  occ. eigenvalues --   -0.29037  -0.28201  -0.25763  -0.24932  -0.23929
 Alpha  occ. eigenvalues --   -0.22729  -0.20083  -0.19571  -0.17634  -0.15962
 Alpha  occ. eigenvalues --   -0.12193  -0.08774  -0.05524  -0.03764
 Alpha virt. eigenvalues --    0.04288   0.06276   0.07337   0.08818   0.09307
 Alpha virt. eigenvalues --    0.10024   0.10504   0.10706   0.11293   0.11452
 Alpha virt. eigenvalues --    0.12334   0.12837   0.14441   0.15191   0.15421
 Alpha virt. eigenvalues --    0.16530   0.17243   0.17626   0.18080   0.18334
 Alpha virt. eigenvalues --    0.18563   0.19399   0.19967   0.20228   0.20589
 Alpha virt. eigenvalues --    0.20805   0.21659   0.21953   0.22540   0.23227
 Alpha virt. eigenvalues --    0.23720   0.23884   0.24054   0.24549   0.24859
 Alpha virt. eigenvalues --    0.25265   0.25774   0.26265   0.26974   0.27516
 Alpha virt. eigenvalues --    0.27711   0.28483   0.28908   0.29215   0.29673
 Alpha virt. eigenvalues --    0.30143   0.30431   0.30896   0.31427   0.31837
 Alpha virt. eigenvalues --    0.32208   0.32701   0.33103   0.34063   0.34557
 Alpha virt. eigenvalues --    0.34722   0.34975   0.35206   0.35744   0.36354
 Alpha virt. eigenvalues --    0.36591   0.37360   0.37742   0.38253   0.38762
 Alpha virt. eigenvalues --    0.39384   0.40037   0.40794   0.41256   0.41709
 Alpha virt. eigenvalues --    0.42073   0.42561   0.42819   0.42878   0.43371
 Alpha virt. eigenvalues --    0.44387   0.44694   0.44765   0.45461   0.45970
 Alpha virt. eigenvalues --    0.46665   0.46966   0.47338   0.47718   0.48164
 Alpha virt. eigenvalues --    0.48760   0.49540   0.50751   0.51013   0.52185
 Alpha virt. eigenvalues --    0.52541   0.53411   0.53907   0.55497   0.56329
 Alpha virt. eigenvalues --    0.57900   0.58985   0.60863   0.61651   0.67511
 Alpha virt. eigenvalues --    0.69543   0.72029   0.73833   0.76318   0.77709
 Alpha virt. eigenvalues --    0.78646   0.79682   0.80146   0.80898   0.81759
 Alpha virt. eigenvalues --    0.83009   0.84129   0.84907   0.85221   0.86364
 Alpha virt. eigenvalues --    0.86840   0.87511   0.88686   0.89271   0.92045
 Alpha virt. eigenvalues --    0.92825   0.93947   0.94391   0.94846   0.96781
 Alpha virt. eigenvalues --    0.97643   0.98130   0.99137   0.99294   1.01220
 Alpha virt. eigenvalues --    1.01698   1.03185   1.03881   1.04683   1.08973
 Alpha virt. eigenvalues --    1.09852   1.10641   1.14237   1.15578   1.16877
 Alpha virt. eigenvalues --    1.19213   1.19584   1.21589   1.22243   1.23273
 Alpha virt. eigenvalues --    1.24478   1.26779   1.28473   1.29687   1.30858
 Alpha virt. eigenvalues --    1.32131   1.32446   1.33837   1.34807   1.35656
 Alpha virt. eigenvalues --    1.36466   1.37987   1.38544   1.40272   1.41247
 Alpha virt. eigenvalues --    1.41475   1.42362   1.42974   1.44720   1.46138
 Alpha virt. eigenvalues --    1.47250   1.48059   1.48627   1.49015   1.50647
 Alpha virt. eigenvalues --    1.51008   1.52076   1.53124   1.54545   1.56071
 Alpha virt. eigenvalues --    1.57498   1.58521   1.58854   1.61962   1.63261
 Alpha virt. eigenvalues --    1.70343   1.70709   1.71539   1.74122   1.74974
 Alpha virt. eigenvalues --    1.77277   1.78568   1.78619   1.81085   1.81928
 Alpha virt. eigenvalues --    1.82460   1.84705   1.85134   1.85800   1.86385
 Alpha virt. eigenvalues --    1.87178   1.87893   1.88236   1.89969   1.93558
 Alpha virt. eigenvalues --    1.93621   1.94413   1.96230   1.97231   1.98260
 Alpha virt. eigenvalues --    1.99472   2.00265   2.01232   2.02032   2.02557
 Alpha virt. eigenvalues --    2.04424   2.05294   2.06907   2.08388   2.09556
 Alpha virt. eigenvalues --    2.10348   2.10382   2.11521   2.15130   2.16585
 Alpha virt. eigenvalues --    2.16925   2.19090   2.20089   2.21246   2.23012
 Alpha virt. eigenvalues --    2.26925   2.27788   2.30408   2.31336   2.32611
 Alpha virt. eigenvalues --    2.33031   2.34478   2.35186   2.36813   2.37856
 Alpha virt. eigenvalues --    2.39214   2.42552   2.43109   2.43804   2.44730
 Alpha virt. eigenvalues --    2.46007   2.46633   2.49463   2.50349   2.52077
 Alpha virt. eigenvalues --    2.52201   2.55506   2.57806   2.59346   2.59883
 Alpha virt. eigenvalues --    2.62482   2.64054   2.64343   2.66313   2.68043
 Alpha virt. eigenvalues --    2.69861   2.71350   2.72189   2.73091   2.73845
 Alpha virt. eigenvalues --    2.74955   2.78766   2.80842   2.81304   2.82644
 Alpha virt. eigenvalues --    2.84359   2.86972   2.89835   2.91608   2.92758
 Alpha virt. eigenvalues --    2.94687   2.96931   3.03791   3.07561   3.12199
 Alpha virt. eigenvalues --    3.13336   3.15538   3.19582   3.24075   3.24556
 Alpha virt. eigenvalues --    3.29035   3.31289   3.34401   3.38089   3.41610
 Alpha virt. eigenvalues --    3.42781   3.45932   3.49192   3.52689   3.54944
 Alpha virt. eigenvalues --    3.55960   3.63423   3.86993   3.95380   4.33502
 Alpha virt. eigenvalues --    4.37128   4.39476   4.39843   4.46578   4.47056
 Alpha virt. eigenvalues --    4.49812   4.55772   4.58361   4.60213   4.63495
 Alpha virt. eigenvalues --    4.66295   4.70969   4.80515   4.93805   5.04686
 Alpha virt. eigenvalues --    6.10694   6.33230
          Condensed to atoms (all electrons):
              1          2          3          4          5          6
     1  F    9.356156   0.408175  -0.210712  -0.006754  -0.000494  -0.012677
     2  C    0.408175  23.325177  -5.276242   0.995143  -0.029855   2.002122
     3  C   -0.210712  -5.276242  11.047079  -0.387920  -0.100106  -1.049357
     4  C   -0.006754   0.995143  -0.387920   6.634068   0.292783  -0.205769
     5  F   -0.000494  -0.029855  -0.100106   0.292783   9.425237  -0.181496
     6  C   -0.012677   2.002122  -1.049357  -0.205769  -0.181496  11.801908
     7  C   -0.000767  -9.047697   0.960662   0.522555   0.010241  -7.928386
     8  C   -0.156379  -5.700420   0.322823  -1.373281  -0.053229   0.811148
     9  C    0.051235   0.035970   0.297340  -0.572672   0.007138   1.154318
    10  C   -0.025117  -0.819597  -0.123639  -0.025716   0.002755   0.108919
    11  C   -0.028770  -0.926066  -0.140005   0.083545  -0.000268  -0.189718
    12  C   -0.002654   0.015246   0.017074  -0.007339  -0.000001   0.029842
    13  O   -0.000106   0.014087   0.000229  -0.000802   0.000000   0.003102
    14  O    0.000084   0.008476   0.000741  -0.000099   0.000000   0.000544
    15  C   -0.028819   1.369667   0.159372   0.231823  -0.001355  -0.711944
    16  C    0.015029  -0.644258  -0.052803  -0.022375  -0.000098  -0.129190
    17  C    0.002790   0.634295   0.028124   0.003188   0.000148   0.023556
    18  O   -0.000025   0.002417   0.000858   0.000118   0.000000  -0.001270
    19  H   -0.008884   0.055927   0.195112  -0.003763  -0.007570   0.007289
    20  H    0.000058  -0.007257   0.035740   0.031314  -0.007244   0.250056
    21  H   -0.000261   0.070522  -0.028455  -0.012379  -0.000717  -0.077633
    22  H   -0.000415   0.084577   0.031921   0.001289   0.000000  -0.000111
    23  H   -0.000011  -0.086969   0.002546  -0.000497   0.000000   0.059725
    24  H    0.000001   0.001880   0.000089  -0.000109   0.000000   0.000525
    25  H    0.000000  -0.000846   0.000153   0.000001   0.000000  -0.000075
              7          8          9         10         11         12
     1  F   -0.000767  -0.156379   0.051235  -0.025117  -0.028770  -0.002654
     2  C   -9.047697  -5.700420   0.035970  -0.819597  -0.926066   0.015246
     3  C    0.960662   0.322823   0.297340  -0.123639  -0.140005   0.017074
     4  C    0.522555  -1.373281  -0.572672  -0.025716   0.083545  -0.007339
     5  F    0.010241  -0.053229   0.007138   0.002755  -0.000268  -0.000001
     6  C   -7.928386   0.811148   1.154318   0.108919  -0.189718   0.029842
     7  C   23.821947  -1.998409  -2.315668   0.966299   0.713663  -0.059415
     8  C   -1.998409  19.431680  -2.293661  -7.219175   3.360856  -0.121888
     9  C   -2.315668  -2.293661  21.752464  -2.110716  -4.523001   0.445492
    10  C    0.966299  -7.219175  -2.110716  45.933698 -14.769007   1.811246
    11  C    0.713663   3.360856  -4.523001 -14.769007  29.339740  -3.095223
    12  C   -0.059415  -0.121888   0.445492   1.811246  -3.095223   7.042153
    13  O   -0.008299   0.003840   0.217376  -0.126956  -0.409227   0.494607
    14  O   -0.002760  -0.001374   0.098554   0.282018  -0.636349   0.481641
    15  C    0.851427  -0.147644  -6.419853 -12.474767  -0.357738   0.148802
    16  C    0.164158   1.602502   0.853176  -0.622404  -1.551220  -0.707932
    17  C   -0.357742  -1.380320  -1.178515  -4.432835  -1.627349  -1.141416
    18  O   -0.000093  -0.009472  -0.099919   0.175499  -0.269849   0.025311
    19  H    0.006904   0.054807  -0.002756   0.005956   0.000673  -0.000049
    20  H   -0.024513   0.033902  -0.003831   0.001017   0.000272  -0.000008
    21  H    0.255979   0.136170  -0.109204  -0.095972  -0.012466  -0.000440
    22  H   -0.062197  -0.037856   0.120744  -0.181959   0.116249   0.030033
    23  H    0.099527  -0.083152   0.233307   0.132533   0.000917   0.001469
    24  H   -0.006265  -0.007679  -0.022131  -0.005866   0.063258   0.009107
    25  H    0.000234   0.004947   0.007891  -0.095209  -0.194944  -0.001277
             13         14         15         16         17         18
     1  F   -0.000106   0.000084  -0.028819   0.015029   0.002790  -0.000025
     2  C    0.014087   0.008476   1.369667  -0.644258   0.634295   0.002417
     3  C    0.000229   0.000741   0.159372  -0.052803   0.028124   0.000858
     4  C   -0.000802  -0.000099   0.231823  -0.022375   0.003188   0.000118
     5  F    0.000000   0.000000  -0.001355  -0.000098   0.000148   0.000000
     6  C    0.003102   0.000544  -0.711944  -0.129190   0.023556  -0.001270
     7  C   -0.008299  -0.002760   0.851427   0.164158  -0.357742  -0.000093
     8  C    0.003840  -0.001374  -0.147644   1.602502  -1.380320  -0.009472
     9  C    0.217376   0.098554  -6.419853   0.853176  -1.178515  -0.099919
    10  C   -0.126956   0.282018 -12.474767  -0.622404  -4.432835   0.175499
    11  C   -0.409227  -0.636349  -0.357738  -1.551220  -1.627349  -0.269849
    12  C    0.494607   0.481641   0.148802  -0.707932  -1.141416   0.025311
    13  O    8.581801  -0.193834   0.039665  -0.012320   0.112031  -0.001524
    14  O   -0.193834   8.530456   0.011830   0.062417  -0.202039   0.010054
    15  C    0.039665   0.011830  31.496476  -8.977313   1.051565   0.130709
    16  C   -0.012320   0.062417  -8.977313  20.507555  -4.702081  -0.733093
    17  C    0.112031  -0.202039   1.051565  -4.702081  19.698507   0.747454
    18  O   -0.001524   0.010054   0.130709  -0.733093   0.747454   8.356043
    19  H    0.000000   0.000000  -0.003345  -0.000324   0.000086   0.000000
    20  H    0.000000   0.000000  -0.005922   0.000591  -0.000089   0.000000
    21  H    0.000000   0.000000   0.123274   0.050460   0.007807  -0.000001
    22  H    0.005439   0.002809   0.164158  -0.045532   0.077042  -0.000702
    23  H    0.000008   0.000001   0.033037   0.007086  -0.113690  -0.000844
    24  H    0.000013   0.000169  -0.053397   0.189622   0.139614  -0.010851
    25  H    0.000253   0.009661  -0.040814   0.236959   0.093168   0.203850
             19         20         21         22         23         24
     1  F   -0.008884   0.000058  -0.000261  -0.000415  -0.000011   0.000001
     2  C    0.055927  -0.007257   0.070522   0.084577  -0.086969   0.001880
     3  C    0.195112   0.035740  -0.028455   0.031921   0.002546   0.000089
     4  C   -0.003763   0.031314  -0.012379   0.001289  -0.000497  -0.000109
     5  F   -0.007570  -0.007244  -0.000717   0.000000   0.000000   0.000000
     6  C    0.007289   0.250056  -0.077633  -0.000111   0.059725   0.000525
     7  C    0.006904  -0.024513   0.255979  -0.062197   0.099527  -0.006265
     8  C    0.054807   0.033902   0.136170  -0.037856  -0.083152  -0.007679
     9  C   -0.002756  -0.003831  -0.109204   0.120744   0.233307  -0.022131
    10  C    0.005956   0.001017  -0.095972  -0.181959   0.132533  -0.005866
    11  C    0.000673   0.000272  -0.012466   0.116249   0.000917   0.063258
    12  C   -0.000049  -0.000008  -0.000440   0.030033   0.001469   0.009107
    13  O    0.000000   0.000000   0.000000   0.005439   0.000008   0.000013
    14  O    0.000000   0.000000   0.000000   0.002809   0.000001   0.000169
    15  C   -0.003345  -0.005922   0.123274   0.164158   0.033037  -0.053397
    16  C   -0.000324   0.000591   0.050460  -0.045532   0.007086   0.189622
    17  C    0.000086  -0.000089   0.007807   0.077042  -0.113690   0.139614
    18  O    0.000000   0.000000  -0.000001  -0.000702  -0.000844  -0.010851
    19  H    0.553868  -0.000146   0.000009   0.000000   0.000000   0.000000
    20  H   -0.000146   0.573028  -0.007794   0.000000   0.000002   0.000000
    21  H    0.000009  -0.007794   0.575843   0.000013   0.000397   0.000002
    22  H    0.000000   0.000000   0.000013   0.521463  -0.000181   0.000023
    23  H    0.000000   0.000002   0.000397  -0.000181   0.625635  -0.008759
    24  H    0.000000   0.000000   0.000002   0.000023  -0.008759   0.596675
    25  H    0.000000   0.000000   0.000000  -0.000002   0.000006   0.000145
             25
     1  F    0.000000
     2  C   -0.000846
     3  C    0.000153
     4  C    0.000001
     5  F    0.000000
     6  C   -0.000075
     7  C    0.000234
     8  C    0.004947
     9  C    0.007891
    10  C   -0.095209
    11  C   -0.194944
    12  C   -0.001277
    13  O    0.000253
    14  O    0.009661
    15  C   -0.040814
    16  C    0.236959
    17  C    0.093168
    18  O    0.203850
    19  H    0.000000
    20  H    0.000000
    21  H    0.000000
    22  H   -0.000002
    23  H    0.000006
    24  H    0.000145
    25  H    0.414954
 Mulliken atomic charges:
              1
     1  F   -0.350684
     2  C   -0.484476
     3  C    0.269377
     4  C   -0.176353
     5  F   -0.355868
     6  C    0.234570
     7  C   -0.561385
     8  C    0.821264
     9  C    0.376922
    10  C   -0.291007
    11  C    1.052027
    12  C    0.585618
    13  O   -0.719382
    14  O   -0.463000
    15  C   -0.588895
    16  C    0.511390
    17  C   -1.483297
    18  O   -0.524670
    19  H    0.146207
    20  H    0.130823
    21  H    0.124845
    22  H    0.173194
    23  H    0.097904
    24  H    0.113932
    25  H    0.360945
 Sum of Mulliken atomic charges =  -1.00000
 Mulliken charges with hydrogens summed into heavy atoms:
              1
     1  F   -0.350684
     2  C   -0.484476
     3  C    0.415584
     4  C   -0.176353
     5  F   -0.355868
     6  C    0.365393
     7  C   -0.436541
     8  C    0.821264
     9  C    0.376922
    10  C   -0.117814
    11  C    1.052027
    12  C    0.585618
    13  O   -0.719382
    14  O   -0.463000
    15  C   -0.490991
    16  C    0.625322
    17  C   -1.483297
    18  O   -0.163725
 Sum of Mulliken charges with hydrogens summed into heavy atoms =  -1.00000
 Electronic spatial extent (au):  <R**2>=           5562.8381
 Charge=             -1.0000 electrons
 Dipole moment (field-independent basis, Debye):
    X=            -12.9047    Y=              8.8862    Z=              3.1843  Tot=             15.9886
 Quadrupole moment (field-independent basis, Debye-Ang):
   XX=           -172.5716   YY=           -129.1631   ZZ=           -109.0555
   XY=             21.8423   XZ=             15.3461   YZ=             -9.1389
 Traceless Quadrupole moment (field-independent basis, Debye-Ang):
   XX=            -35.6415   YY=              7.7669   ZZ=             27.8746
   XY=             21.8423   XZ=             15.3461   YZ=             -9.1389
 Octapole moment (field-independent basis, Debye-Ang**2):
  XXX=           -158.4864  YYY=             46.2567  ZZZ=             13.3867  XYY=           -103.8414
  XXY=             83.5644  XXZ=             57.0858  XZZ=            -12.7530  YZZ=             11.0771
  YYZ=             24.3611  XYZ=            -15.1548
 Hexadecapole moment (field-independent basis, Debye-Ang**3):
 XXXX=          -6996.2453 YYYY=          -1407.8209 ZZZZ=           -377.2002 XXXY=            275.7422
 XXXZ=            185.3799 YYYX=            187.0373 YYYZ=            -83.1576 ZZZX=             33.5221
 ZZZY=            -33.9375 XXYY=          -1409.3386 XXZZ=           -965.1420 YYZZ=           -301.0435
 XXYZ=           -101.2476 YYXZ=             83.4038 ZZXY=             38.3502
 N-N= 1.206820150805D+03 E-N=-4.595452444404D+03  KE= 9.175025793615D+02
 No NMR shielding tensors so no spin-rotation constants.
 Leave Link  601 at Mon Oct 29 15:28:32 2012, MaxMem=  268435456 cpu:       0.7
 (Enter /home/est863/Gaussian/g09/l701.exe)
 Compute integral first derivatives.
 ... and contract with generalized density number  0.
 Leave Link  701 at Mon Oct 29 15:29:07 2012, MaxMem=  268435456 cpu:       0.8
 (Enter /home/est863/Gaussian/g09/l702.exe)
 L702 exits ... SP integral derivatives will be done elsewhere.
 Leave Link  702 at Mon Oct 29 15:29:10 2012, MaxMem=  268435456 cpu:       0.0
 (Enter /home/est863/Gaussian/g09/l703.exe)
 Compute integral first derivatives, UseDBF=F ICtDFT=           0.
 Integral derivatives from FoFDir, PRISM(SPDF).
 Calling FoFJK, ICntrl=      2127 FMM=F ISym2X=0 I1Cent= 0 IOpClX= 0 NMat=1 NMatS=1 NMatT=0.
 FoFCou: FMM=F IPFlag=           0 FMFlag=      100000 FMFlg1=         800
         NFxFlg=           0 DoJE=F BraDBF=F KetDBF=F FulRan=T
         Omega=  0.000000  0.000000  1.000000  0.000000  0.000000 ICntrl=    2127 IOpCl=  0
         NMat0=    1 NMatS0=    1 NMatT0=    0 NMatD0=    1 NMtDS0=    0 NMtDT0=    0
         I1Cent=           0 NGrid=           0.
 Symmetry not used in FoFCou.
 Leave Link  703 at Mon Oct 29 15:36:00 2012, MaxMem=  268435456 cpu:     147.3
 (Enter /home/est863/Gaussian/g09/l716.exe)
 Dipole        =-5.07710115D+00 3.49610612D+00 1.25278848D+00
 ***** Axes restored to original set *****
 -------------------------------------------------------------------
 Center     Atomic                   Forces (Hartrees/Bohr)
 Number     Number              X              Y              Z
 -------------------------------------------------------------------
      1        9           0.048154460    0.019228997    0.006155615
      2        6          -0.028186801   -0.005560024    0.036726783
      3        6           0.016165069   -0.000564549   -0.062564597
      4        6          -0.027475844   -0.015769632   -0.010899704
      5        9          -0.004470705   -0.003781804   -0.009445469
      6        6           0.043232977    0.019460888   -0.041483935
      7        6          -0.058603227   -0.017812731    0.085531597
      8        6           0.029788162    0.006240044   -0.036002676
      9        6          -0.030775506   -0.046040543    0.037306678
     10        6           0.048031480    0.023010646   -0.114842047
     11        6          -0.021560740   -0.014002178    0.064213216
     12        6           0.157430341   -0.069644742   -0.206162984
     13        8          -0.007011125    0.092594813    0.024034753
     14        8          -0.153229104    0.002103214    0.189708236
     15        6           0.043196105    0.030315367   -0.079530456
     16        6          -0.010452477    0.047455603    0.073558734
     17        6          -0.050877432   -0.064080215    0.061291437
     18        8          -0.046237227   -0.001715772   -0.019007292
     19        1           0.001256823    0.002169039    0.001082758
     20        1          -0.001879281   -0.002231359   -0.001698997
     21        1          -0.005949508   -0.003417938    0.002445497
     22        1          -0.000336876   -0.000508338    0.001585068
     23        1           0.000640091    0.000270340   -0.000931470
     24        1          -0.003800807   -0.002670921    0.001578863
     25        1           0.062951152    0.004951795   -0.002649609
 -------------------------------------------------------------------
 Cartesian Forces:  Max     0.206162984 RMS     0.055086704
 Leave Link  716 at Mon Oct 29 15:36:05 2012, MaxMem=  268435456 cpu:       0.0
 (Enter /home/est863/Gaussian/g09/l103.exe)

 GradGradGradGradGradGradGradGradGradGradGradGradGradGradGradGradGradGrad
 Berny optimization.
 Internal  Forces:  Max     0.241097066 RMS     0.031369939
 Search for a local minimum.
 Step number   1 out of a maximum of  134
 All quantities printed in internal units (Hartrees-Bohrs-Radians)
 RMS Force = .31370D-01 SwitMx=.10000D-02 MixMth= 1
 Mixed Optimization -- RFO/linear search
 Second derivative matrix not updated -- first step.
     Eigenvalues ---    0.00230   0.00230   0.01239   0.01485   0.01530
     Eigenvalues ---    0.01738   0.01763   0.01764   0.01993   0.02096
     Eigenvalues ---    0.02150   0.02222   0.02310   0.02313   0.02365
     Eigenvalues ---    0.02501   0.02608   0.02731   0.02840   0.02941
     Eigenvalues ---    0.03034   0.03147   0.16000   0.16000   0.16000
     Eigenvalues ---    0.16000   0.16000   0.16000   0.16000   0.22340
     Eigenvalues ---    0.22363   0.23421   0.23478   0.24552   0.24595
     Eigenvalues ---    0.24950   0.24964   0.24971   0.24996   0.24999
[...]
    R3        2.65823   0.00085   0.00027   0.00360   0.00388   2.66211
    R4        2.62136   0.00027   0.00012   0.00086   0.00098   2.62234
    R5        2.04784  -0.00002  -0.00003  -0.00030  -0.00033   2.04751
    R6        2.58564   0.00050  -0.00022  -0.00163  -0.00185   2.58379
    R7        2.62545  -0.00144   0.00011   0.00181   0.00191   2.62736
    R8        2.63665   0.00052  -0.00001   0.00024   0.00024   2.63689
    R9        2.05047  -0.00016  -0.00001  -0.00015  -0.00016   2.05031
   R10        2.67226  -0.00010   0.00070   0.00920   0.00990   2.68216
   R11        2.05036   0.00003   0.00001  -0.00008  -0.00007   2.05028
   R12        2.78525   0.00180  -0.00021  -0.00416  -0.00437   2.78088
   R13        2.65885  -0.00109   0.00040   0.00221   0.00261   2.66146
   R14        2.68058  -0.00182   0.00002   0.00524   0.00523   2.68580
   R15        2.62876   0.00325   0.00015   0.00339   0.00356   2.63231
   R16        2.04900   0.00030  -0.00004  -0.00047  -0.00051   2.04849
   R17        2.82824   0.00805   0.00152  -0.00446  -0.00294   2.82530
   R18        2.72664   0.00548  -0.00019   0.01264   0.01247   2.73911
   R19        2.34524  -0.01478   0.00067  -0.00227  -0.00160   2.34363
   R20        2.51667  -0.00275  -0.00012   0.02790   0.02778   2.54445
   R21        2.61262  -0.00067   0.00032   0.00069   0.00099   2.61361
   R22        2.05872  -0.00054  -0.00011  -0.00088  -0.00098   2.05773
   R23        2.70014  -0.00044  -0.00036   0.01152   0.01116   2.71130
   R24        2.05450  -0.00020  -0.00003  -0.00029  -0.00032   2.05417
   R25        2.45482  -0.00526  -0.00035  -0.03110  -0.03145   2.42337
   R26        2.57384   0.00097  -0.00736   0.17943   0.17208   2.74592
    A1        2.02209   0.00032  -0.00021  -0.00404  -0.00426   2.01783
    A2        2.08752   0.00080   0.00032   0.00358   0.00390   2.09141
    A3        2.17322  -0.00112  -0.00010   0.00047   0.00037   2.17359
    A4        2.05486   0.00025   0.00029   0.00351   0.00380   2.05866
    A5        2.10266  -0.00011  -0.00035  -0.00556  -0.00591   2.09674
    A6        2.12558  -0.00014   0.00006   0.00206   0.00212   2.12770
    A7        2.07273  -0.00013   0.00015   0.00238   0.00253   2.07525
    A8        2.12335   0.00067  -0.00008  -0.00195  -0.00204   2.12132
    A9        2.08710  -0.00054  -0.00007  -0.00043  -0.00049   2.08661
   A10        2.06554  -0.00024  -0.00010  -0.00046  -0.00056   2.06498
   A11        2.09839   0.00000   0.00006   0.00042   0.00048   2.09887
   A12        2.11906   0.00024   0.00004   0.00000   0.00004   2.11910
   A13        2.15472  -0.00022   0.00028   0.00398   0.00426   2.15898
   A14        2.07200  -0.00015  -0.00041  -0.00585  -0.00626   2.06573
   A15        2.05615   0.00037   0.00012   0.00178   0.00190   2.05805
   A16        1.99462   0.00066  -0.00029  -0.00558  -0.00587   1.98875
   A17        2.16942  -0.00014   0.00045   0.00685   0.00729   2.17671
   A18        2.11908  -0.00052  -0.00016  -0.00124  -0.00140   2.11768
   A19        2.14086   0.00043   0.00036   0.00605   0.00642   2.14728
   A20        2.09972  -0.00089  -0.00023  -0.00175  -0.00197   2.09775
   A21        2.04186   0.00046  -0.00013  -0.00428  -0.00443   2.03744
   A22        2.13135   0.00275   0.00021   0.00121   0.00139   2.13274
   A23        2.11033  -0.00124   0.00006  -0.00196  -0.00197   2.10836
   A24        2.04143  -0.00151  -0.00029   0.00053   0.00016   2.04159
   A25        2.09479  -0.01144   0.00031  -0.00226  -0.00207   2.09271
   A26        2.11163  -0.00507  -0.00052   0.00599   0.00545   2.11708
   A27        2.07638   0.01652   0.00022  -0.00309  -0.00300   2.07338
   A28        2.15241  -0.00842  -0.00013   0.02826   0.02809   2.18050
   A29        1.98709   0.01673  -0.00018  -0.00514  -0.00536   1.98173
   A30        2.14359  -0.00829   0.00032  -0.02293  -0.02264   2.12095
   A31        2.13193  -0.00034   0.00005   0.00457   0.00455   2.13648
   A32        2.08121   0.00007   0.00014  -0.00037  -0.00026   2.08095
   A33        2.06983   0.00026  -0.00020  -0.00451  -0.00474   2.06510
   A34        2.11919   0.00118  -0.00032   0.00346   0.00314   2.12233
   A35        2.10843  -0.00046   0.00001  -0.00134  -0.00134   2.10709
   A36        2.05553  -0.00072   0.00031  -0.00207  -0.00177   2.05376
   A37        2.03021   0.00102   0.00069  -0.01119  -0.01060   2.01961
   A38        2.11339   0.00683  -0.00012   0.00431   0.00402   2.11741
   A39        2.13952  -0.00784  -0.00057   0.00722   0.00647   2.14599
   A40        1.74536  -0.00761  -0.00162  -0.03585  -0.03747   1.70788
    D1        3.10631   0.00001  -0.00018  -0.00200  -0.00218   3.10413
    D2       -0.02053   0.00002  -0.00021  -0.00280  -0.00300  -0.02353
    D3       -0.00640  -0.00002  -0.00012  -0.00237  -0.00249  -0.00889
    D4       -3.13324  -0.00001  -0.00014  -0.00317  -0.00331  -3.13655
    D5       -3.10788  -0.00002   0.00025   0.00210   0.00235  -3.10553
    D6        0.02167   0.00000   0.00038   0.00420   0.00459   0.02625
    D7        0.00382   0.00000   0.00017   0.00237   0.00254   0.00636
    D8        3.13337   0.00002   0.00030   0.00447   0.00478   3.13814
    D9        3.13971   0.00000  -0.00006  -0.00105  -0.00112   3.13860
   D10       -0.00015   0.00003  -0.00007  -0.00016  -0.00024  -0.00039
   D11       -0.01684  -0.00001  -0.00004  -0.00031  -0.00035  -0.01719
   D12        3.12648   0.00002  -0.00005   0.00058   0.00053   3.12701
   D13        0.00863  -0.00001   0.00018   0.00239   0.00256   0.01119
   D14        3.12962  -0.00003  -0.00002   0.00048   0.00046   3.13008
   D15       -3.13122   0.00002   0.00017   0.00328   0.00345  -3.12778
   D16       -0.01024   0.00001  -0.00003   0.00138   0.00135  -0.00889
   D17       -0.01149  -0.00001  -0.00011  -0.00236  -0.00248  -0.01397
   D18        3.10228   0.00003  -0.00040  -0.00622  -0.00661   3.09567
   D19       -3.13222   0.00001   0.00009  -0.00044  -0.00036  -3.13258
   D20       -0.01845   0.00005  -0.00020  -0.00430  -0.00449  -0.02294
   D21        0.00538   0.00002  -0.00005   0.00007   0.00001   0.00539
   D22       -3.12456  -0.00001  -0.00019  -0.00203  -0.00221  -3.12677
   D23       -3.10863  -0.00002   0.00024   0.00400   0.00425  -3.10438
   D24        0.04462  -0.00004   0.00010   0.00191   0.00203   0.04665
   D25        0.65477   0.00034  -0.00232  -0.04835  -0.05069   0.60408
   D26       -2.52935   0.00033  -0.00239  -0.04784  -0.05022  -2.57957
   D27       -2.49969   0.00037  -0.00217  -0.04614  -0.04832  -2.54801
   D28        0.59938   0.00037  -0.00225  -0.04563  -0.04785   0.55153
   D29        3.08359  -0.00005  -0.00066  -0.00941  -0.01006   3.07353
   D30       -0.04489   0.00016   0.00041   0.01121   0.01161  -0.03328
   D31       -0.01680  -0.00001  -0.00059  -0.00996  -0.01056  -0.02736
   D32        3.13791   0.00020   0.00048   0.01067   0.01111  -3.13416
   D33       -3.08383  -0.00030  -0.00001  -0.00124  -0.00125  -3.08508
   D34        0.07978   0.00004   0.00082   0.01554   0.01639   0.09617
   D35        0.01759  -0.00030  -0.00006  -0.00051  -0.00056   0.01703
   D36       -3.10199   0.00003   0.00076   0.01626   0.01709  -3.08491
   D37       -3.10923  -0.00060  -0.00018  -0.02048  -0.02069  -3.12992
   D38        0.00207   0.00016   0.00021   0.00403   0.00424   0.00631
   D39        0.01974  -0.00080  -0.00120  -0.04035  -0.04159  -0.02185
   D40        3.13104  -0.00004  -0.00081  -0.01584  -0.01666   3.11438
   D41       -0.01606   0.00106  -0.00040  -0.00275  -0.00320  -0.01926
   D42        3.13987  -0.00040  -0.00212  -0.01683  -0.01899   3.12087
   D43       -3.12797   0.00068  -0.00078  -0.02692  -0.02765   3.12757
   D44        0.02795  -0.00078  -0.00249  -0.04100  -0.04344  -0.01549
   D45        0.01213  -0.00002   0.00079   0.01184   0.01256   0.02469
   D46       -3.11712  -0.00054  -0.00112  -0.01808  -0.01914  -3.13626
   D47        3.12374   0.00026   0.00118   0.03611   0.03723  -3.12221
   D48       -0.00550  -0.00027  -0.00073   0.00619   0.00553   0.00003
   D49       -0.00348   0.00045   0.00109   0.01712   0.01827   0.01479
   D50       -3.13529   0.00040   0.00048   0.01037   0.01090  -3.12439
   D51        3.11624   0.00012   0.00028   0.00050   0.00083   3.11707
   D52       -0.01557   0.00007  -0.00033  -0.00625  -0.00654  -0.02211
   D53       -0.01142  -0.00030  -0.00143  -0.02217  -0.02351  -0.03493
   D54        3.11763   0.00035   0.00051   0.00822   0.00874   3.12637
   D55        3.12068  -0.00025  -0.00083  -0.01561  -0.01636   3.10432
   D56       -0.03346   0.00040   0.00111   0.01477   0.01590  -0.01756
   D57       -0.01541   0.00091   0.00049   0.00776   0.00835  -0.00706
   D58        3.13932   0.00028  -0.00153  -0.02394  -0.02557   3.11375
         Item               Value     Threshold  Converged?
 Maximum Force            0.016727     0.000450     NO 
 RMS     Force            0.003379     0.000300     NO 
 Maximum Displacement     0.211953     0.001800     NO 
 RMS     Displacement     0.041176     0.001200     NO 
 Predicted change in Energy=-4.070576D-04
 GradGradGradGradGradGradGradGradGradGradGradGradGradGradGradGradGradGrad

 Leave Link  103 at Tue Oct 30 06:40:01 2012, MaxMem=  268435456 cpu:       1.6
 (Enter /home/est863/Gaussian/g09/l202.exe)
                          Input orientation:                          
 ---------------------------------------------------------------------
 Center     Atomic      Atomic             Coordinates (Angstroms)
 Number     Number       Type             X           Y           Z
 ---------------------------------------------------------------------
      1          9           0       -0.068908   41.701426    5.407052
      2          6           0        1.056920   42.463640    5.330505
      3          6           0        1.615822   42.586301    4.060631
      4          6           0        2.738547   43.389457    3.918904
      5          9           0        3.305175   43.520830    2.681512
      6          6           0        3.297187   44.056568    5.003307
      7          6           0        2.708035   43.890880    6.257316
      8          6           0        1.558246   43.091257    6.487779
      9          6           0        0.968593   42.967745    7.830386
     10          6           0        0.358371   41.786572    8.295145
     11          6           0       -0.123477   41.662452    9.596204
     12          6           0       -0.749105   40.379163   10.040088
     13          8           0       -0.902782   39.378789    9.323342
     14          8           0       -1.146774   40.391336   11.326432
     15          6           0        1.042189   44.052364    8.745907
     16          6           0        0.562279   43.963972   10.040023
     17          6           0       -0.026552   42.756003   10.542635
     18          8           0       -0.464807   42.640173   11.742237
     19          1           0        1.167749   42.074367    3.217355
     20          1           0        4.181689   44.670775    4.870717
     21          1           0        3.168797   44.376157    7.111335
     22          1           0        0.273247   40.916514    7.654179
     23          1           0        1.457501   45.002209    8.412699
     24          1           0        0.618303   44.816100   10.712597
     25          1           0       -0.953745   41.275350   11.644109
 ---------------------------------------------------------------------
                    Distance matrix (angstroms):
                    1          2          3          4          5
     1  F    0.000000
     2  C    1.361734   0.000000
     3  C    2.331130   1.392838   0.000000
     4  C    3.598032   2.382776   1.387681   0.000000
     5  F    4.703534   3.631730   2.372599   1.367284   0.000000
     6  C    4.127989   2.768261   2.424317   1.390340   2.382816
     7  C    3.637041   2.371112   2.778539   2.391763   3.644158
     8  C    2.397339   1.408728   2.479787   2.842737   4.209984
     9  C    2.924468   2.551730   3.843886   4.313962   5.681234
    10  C    2.920770   3.120174   4.489082   5.233160   6.572989
    11  C    4.189688   4.497936   5.875477   6.588282   7.938651
    12  C    4.865806   5.457742   6.798400   7.661233   8.969721
    13  O    4.628965   5.412901   6.657900   7.651973   8.886918
    14  O    6.157693   6.715792   8.077232   8.885715  10.215098
    15  C    4.231950   3.766860   4.942692   5.159170   6.494653
    16  C    5.194414   4.967417   6.225839   6.521834   7.865592
    17  C    5.242913   5.331575   6.688989   7.205613   8.572201
    18  O    6.416584   6.592202   7.958580   8.486899   9.853175
    19  H    2.542278   2.151562   1.083494   2.165419   2.635901
    20  H    5.212702   3.853184   3.403667   2.151833   2.623599
    21  H    4.532272   3.359925   3.862915   3.369022   4.513703
    22  H    2.404732   2.899518   4.183812   5.113261   6.379849
    23  H    4.717945   4.013068   4.980178   4.943303   6.201201
    24  H    6.190498   5.890108   7.086304   7.258444   8.567108
    25  H    6.313902   6.731747   8.113594   8.819369  10.173924
                    6          7          8          9         10
     6  C    0.000000
     7  C    1.395382   0.000000
     8  C    2.481813   1.419339   0.000000
     9  C    3.821029   2.520394   1.471577   0.000000
    10  C    4.962430   3.755234   2.531497   1.408382   0.000000
    11  C    6.207047   4.912385   3.812084   2.452452   1.392960
    12  C    7.434039   6.212354   5.029734   3.812352   2.500426
    13  O    7.627847   6.541979   5.280104   4.314113   2.906049
    14  O    8.553632   7.266519   6.165977   4.830631   3.660717
    15  C    4.369449   2.999034   2.507824   1.421265   2.409275
    16  C    5.732085   4.349538   3.791045   2.457653   2.797722
    17  C    6.589603   5.208635   4.366444   2.896799   2.477735
    18  O    7.846779   6.458758   5.648500   4.179057   3.645367
    19  H    3.413686   3.861808   3.447061   4.702960   5.149939
    20  H    1.084977   2.168536   3.462978   4.688703   5.887537
    21  H    2.135978   1.084962   2.152594   2.709530   4.000731
    22  H    5.102085   4.089777   2.782305   2.173040   1.084013
    23  H    3.987811   2.728473   2.714259   2.171903   3.400327
    24  H    6.352110   5.007249   4.659148   3.441840   3.884543
    25  H    8.360972   7.019058   6.016258   4.593917   3.632982
                   11         12         13         14         15
    11  C    0.000000
    12  C    1.495084   0.000000
    13  O    2.428351   1.240197   0.000000
    14  O    2.378353   1.346466   2.257687   0.000000
    15  C    2.791677   4.286729   5.094964   4.985358   0.000000
    16  C    2.442178   3.817144   4.866616   4.164065   1.383063
    17  C    1.449475   2.534562   3.695947   2.731461   2.459877
    18  O    2.382835   2.844346   4.084054   2.386470   3.639137
    19  H    6.521246   7.286819   6.988299   8.599229   5.873084
    20  H    7.065033   8.333850   8.583871   9.401190   5.025533
    21  H    4.937391   6.316922   6.815014   7.229799   2.701689
    22  H    2.117846   2.650756   2.556120   3.972117   3.408328
    23  H    3.879967   5.374947   6.166284   6.044190   1.088905
    24  H    3.426670   4.691320   5.814472   4.803210   2.151939
    25  H    2.243459   1.848760   2.997582   0.958989   4.482760
                   16         17         18         19         20
    16  C    0.000000
    17  C    1.434759   0.000000
    18  O    2.388490   1.282392   0.000000
    19  H    7.105350   7.453235   8.698217   0.000000
    20  H    6.349915   7.317534   8.539968   4.307990   0.000000
    21  H    3.942213   4.960743   6.136935   4.946262   2.476513
    22  H    3.881081   3.437553   4.497548   4.671848   6.092459
    23  H    2.127801   3.432853   4.512239   5.970579   4.480702
    24  H    1.087021   2.165346   2.639686   7.999853   6.844443
    25  H    3.478522   2.065252   1.453076   8.726359   9.153166
                   21         22         23         24         25
    21  H    0.000000
    22  H    4.544009   0.000000
    23  H    2.239202   4.320961   0.000000
    24  H    4.434823   4.967872   2.455284   0.000000
    25  H    6.867052   4.189727   5.490500   3.984465   0.000000
 Stoichiometry    C13H7F2O3(1-)
 Framework group  C1[X(C13H7F2O3)]
 Deg. of freedom    69
 Full point group                 C1      NOp   1
 Largest Abelian subgroup         C1      NOp   1
 Largest concise Abelian subgroup C1      NOp   1
                         Standard orientation:                         
 ---------------------------------------------------------------------
 Center     Atomic      Atomic             Coordinates (Angstroms)
 Number     Number       Type             X           Y           Z
 ---------------------------------------------------------------------
      1          9           0       -1.313671   -1.886830    0.924437
      2          6           0       -2.045388   -0.867045    0.396281
      3          6           0       -3.417210   -1.092073    0.309900
      4          6           0       -4.214965   -0.067231   -0.178918
      5          9           0       -5.563920   -0.268446   -0.275336
      6          6           0       -3.673446    1.151173   -0.572994
      7          6           0       -2.291808    1.322638   -0.479357
      8          6           0       -1.406298    0.328013    0.011680
      9          6           0        0.041988    0.571495    0.105080
     10          6           0        1.004616   -0.435757   -0.100662
     11          6           0        2.371871   -0.169766   -0.086481
     12          6           0        3.348908   -1.275838   -0.325806
     13          8           0        3.044548   -2.461360   -0.525791
     14          8           0        4.633276   -0.872003   -0.308903
     15          6           0        0.531467    1.880327    0.364623
     16          6           0        1.882698    2.173577    0.396933
     17          6           0        2.876284    1.168267    0.150617
     18          8           0        4.134765    1.414636    0.158011
     19          1           0       -3.834376   -2.039051    0.631092
     20          1           0       -4.315433    1.934435   -0.962259
     21          1           0       -1.863730    2.256947   -0.827147
     22          1           0        0.704327   -1.456013   -0.310397
     23          1           0       -0.175849    2.679065    0.582426
     24          1           0        2.227283    3.181450    0.613883
     25          1           0        4.603091    0.063785   -0.101422
 ---------------------------------------------------------------------
 Rotational constants (GHZ):      1.0357124      0.2018358      0.1738406
 Leave Link  202 at Tue Oct 30 06:40:03 2012, MaxMem=  268435456 cpu:       0.0
 (Enter /home/est863/Gaussian/g09/l301.exe)
 Standard basis: 6-31+G(d,p) (6D, 7F)
 Ernie: Thresh=  0.10000D-02 Tol=  0.10000D-05 Strict=F.
 There are   377 symmetry adapted basis functions of A   symmetry.
 Integral buffers will be    131072 words long.
 Raffenetti 2 integral format.
 Two-electron integral symmetry is turned on.
   377 basis functions,   625 primitive gaussians,   377 cartesian basis functions
    64 alpha electrons       64 beta electrons
       nuclear repulsion energy      1210.0765249463 Hartrees.
 IExCor=  402 DFT=T Ex+Corr=B3LYP ExCW=0 ScaHFX=  0.200000
 ScaDFX=  0.800000  0.720000  1.000000  0.810000 ScalE2=  1.000000  1.000000
 IRadAn=      0 IRanWt=     -1 IRanGd=            0 ICorTp=0
 NAtoms=   25 NActive=   25 NUniq=   25 SFac= 7.50D-01 NAtFMM=   80 NAOKFM=F Big=F
 Leave Link  301 at Tue Oct 30 06:40:03 2012, MaxMem=  268435456 cpu:       0.1
 (Enter /home/est863/Gaussian/g09/l302.exe)
 NPDir=0 NMtPBC=     1 NCelOv=     1 NCel=       1 NClECP=     1 NCelD=      1
         NCelK=      1 NCelE2=     1 NClLst=     1 CellRange=     0.0.
 One-electron integrals computed using PRISM.
