 Entering Gaussian System, Link 0=g09
 Input=/home/est863/workspace/863program/src/forguassian/3D2TA-QMMM-insidegauss-ligand/3D2TA-QMMM-insidegauss-ligand.gjf
 Output=/home/est863/workspace/863program/src/forguassian/3D2TA-QMMM-insidegauss-ligand/3D2TA-QMMM-insidegauss-ligand.Fluoptlog
 Initial command:
 /home/est863/Gaussian/g09/l1.exe /home/est863/Gaussian/g09/scratch/Gau-27605.inp -scrdir=/home/est863/Gaussian/g09/scratch/
 Entering Link 1 = /home/est863/Gaussian/g09/l1.exe PID=     27606.
  
 Copyright (c) 1988,1990,1992,1993,1995,1998,2003,2009, Gaussian, Inc.
                  All Rights Reserved.
  
 This is part of the Gaussian(R) 09 program.  It is based on
 the Gaussian(R) 03 system (copyright 2003, Gaussian, Inc.),
 the Gaussian(R) 98 system (copyright 1998, Gaussian, Inc.),
 the Gaussian(R) 94 system (copyright 1995, Gaussian, Inc.),
 the Gaussian 92(TM) system (copyright 1992, Gaussian, Inc.),
 the Gaussian 90(TM) system (copyright 1990, Gaussian, Inc.),
 the Gaussian 88(TM) system (copyright 1988, Gaussian, Inc.),
 the Gaussian 86(TM) system (copyright 1986, Carnegie Mellon
 University), and the Gaussian 82(TM) system (copyright 1983,
 Carnegie Mellon University). Gaussian is a federally registered
 trademark of Gaussian, Inc.
  
 This software contains proprietary and confidential information,
 including trade secrets, belonging to Gaussian, Inc.
  
 This software is provided under written license and may be
 used, copied, transmitted, or stored only in accord with that
 written license.
  
 The following legend is applicable only to US Government
 contracts under FAR:
  
                    RESTRICTED RIGHTS LEGEND
  
 Use, reproduction and disclosure by the US Government is
 subject to restrictions as set forth in subparagraphs (a)
 and (c) of the Commercial Computer Software - Restricted
 Rights clause in FAR 52.227-19.
  
 Gaussian, Inc.
 340 Quinnipiac St., Bldg. 40, Wallingford CT 06492
  
  
 ---------------------------------------------------------------
 Warning -- This program may not be used in any manner that
 competes with the business of Gaussian, Inc. or will provide
 assistance to any competitor of Gaussian, Inc.  The licensee
 of this program is prohibited from giving any competitor of
 Gaussian, Inc. access to this program.  By using this program,
 the user acknowledges that Gaussian, Inc. is engaged in the
 business of creating and licensing software in the field of
 computational chemistry and represents and warrants to the
 licensee that it is not a competitor of Gaussian, Inc. and that
 it will not use this program in any manner prohibited above.
 ---------------------------------------------------------------
  

 Cite this work as:
 Gaussian 09, Revision A.01,
 M. J. Frisch, G. W. Trucks, H. B. Schlegel, G. E. Scuseria, 
 M. A. Robb, J. R. Cheeseman, G. Scalmani, V. Barone, B. Mennucci, 
 G. A. Petersson, H. Nakatsuji, M. Caricato, X. Li, H. P. Hratchian, 
 A. F. Izmaylov, J. Bloino, G. Zheng, J. L. Sonnenberg, M. Hada, 
 M. Ehara, K. Toyota, R. Fukuda, J. Hasegawa, M. Ishida, T. Nakajima, 
 Y. Honda, O. Kitao, H. Nakai, T. Vreven, J. A. Montgomery, Jr., 
 J. E. Peralta, F. Ogliaro, M. Bearpark, J. J. Heyd, E. Brothers, 
 K. N. Kudin, V. N. Staroverov, R. Kobayashi, J. Normand, 
 K. Raghavachari, A. Rendell, J. C. Burant, S. S. Iyengar, J. Tomasi, 
 M. Cossi, N. Rega, J. M. Millam, M. Klene, J. E. Knox, J. B. Cross, 
 V. Bakken, C. Adamo, J. Jaramillo, R. Gomperts, R. E. Stratmann, 
 O. Yazyev, A. J. Austin, R. Cammi, C. Pomelli, J. W. Ochterski, 
 R. L. Martin, K. Morokuma, V. G. Zakrzewski, G. A. Voth, 
 P. Salvador, J. J. Dannenberg, S. Dapprich, A. D. Daniels, 
 O. Farkas, J. B. Foresman, J. V. Ortiz, J. Cioslowski, 
 and D. J. Fox, Gaussian, Inc., Wallingford CT, 2009.
 
 ******************************************
 Gaussian 09:  EM64L-G09RevA.01  8-May-2009
                29-Oct-2012 
 ******************************************
 %chk=3D2TA-QMMM-insidegauss-ligand.chk
 %nproc=2
 Will use up to    2 processors via shared memory.
 %mem=2GB
 ----------------------------------------------------------
 #p rb3lyp/6-31+g(d,p) opt freq scrf=(iefpcm,solvent=water)
 ----------------------------------------------------------
 1/14=-1,18=20,19=15,26=3,38=1/1,3;
 2/9=110,12=2,17=6,18=5,40=1/2;
 3/5=1,6=6,7=111,11=2,16=1,25=1,30=1,70=2201,71=1,72=1,74=-5,116=1/1,2,3;
 4//1;
 5/5=2,38=5,53=1/2;
 6/7=2,8=2,9=2,10=2,28=1/1;
 7//1,2,3,16;
 1/14=-1,18=20,19=15/3(2);
 2/9=110/2;
 99//99;
 2/9=110/2;
 3/5=1,6=6,7=111,11=2,16=1,25=1,30=1,70=2205,71=1,72=1,74=-5,116=1/1,2,3;
 4/5=5,16=3/1;
 5/5=2,38=5,53=1/2;
 7//1,2,3,16;
 1/14=-1,18=20,19=15/3(-5);
 2/9=110/2;
 6/7=2,8=2,9=2,10=2,19=2,28=1/1;
 99/9=1/99;
 Leave Link    1 at Mon Oct 29 14:18:14 2012, MaxMem=  268435456 cpu:       0.1
 (Enter /home/est863/Gaussian/g09/l101.exe)
 ----
 3D2T
 ----
 Symbolic Z-matrix:
 Charge = -1 Multiplicity = 1
 F                    -0.4656    42.0695   5.4124 
 C                     0.8636    42.6323   5.3944 
 C                     1.4296    42.7565   4.1772 
 C                     2.6795    43.373    3.9895 
 F                     3.2304    43.5016   2.7575 
 C                     3.3693    43.8685   5.0463 
 C                     2.8505    43.7387   6.2505 
 C                     1.5437    43.1099   6.5395 
 C                     1.0472    42.9908   7.8694 
 C                     0.5227    41.7216   8.4202 
 C                    -0.0103    41.5721   9.6022 
 C                    -0.5389    40.1406   10.0202 
 O                    -0.1093    38.994    9.2755 
 O                    -1.2401    39.9816   10.8802 
 C                     0.9611    44.0543   8.7334 
 C                     0.4878    43.9118   9.9477 
 C                     0.0115    42.7512   10.3885 
 O                    -0.4997    42.7126   11.728 
 H                     0.9001    42.3656   3.3084 
 H                     4.3303    44.3625   4.9031 
 H                     3.4255    44.122    7.0935 
 H                     0.5869    40.8375   7.7858 
 H                     1.2935    45.0383   8.4027 
 H                     0.4846    44.772    10.6172 
 H                    -1.5114    42.4319   11.7091 
 
 NAtoms=     25 NQM=     25 NQMF=      0 NMic=      0 NMicF=      0 NTot=     25.
                    Isotopes and Nuclear Properties:
 (Nuclear quadrupole moments (NQMom) in fm**2, nuclear magnetic moments (NMagM)
  in nuclear magnetons)

  Atom         1           2           3           4           5           6           7           8           9          10
 IAtWgt=          19          12          12          12          19          12          12          12          12          12
 AtmWgt=  18.9984033  12.0000000  12.0000000  12.0000000  18.9984033  12.0000000  12.0000000  12.0000000  12.0000000  12.0000000
 NucSpn=           1           0           0           0           1           0           0           0           0           0
 AtZEff=   0.0000000   0.0000000   0.0000000   0.0000000   0.0000000   0.0000000   0.0000000   0.0000000   0.0000000   0.0000000
 NQMom=    0.0000000   0.0000000   0.0000000   0.0000000   0.0000000   0.0000000   0.0000000   0.0000000   0.0000000   0.0000000
 NMagM=    2.6288670   0.0000000   0.0000000   0.0000000   2.6288670   0.0000000   0.0000000   0.0000000   0.0000000   0.0000000

  Atom        11          12          13          14          15          16          17          18          19          20
 IAtWgt=          12          12          16          16          12          12          12          16           1           1
 AtmWgt=  12.0000000  12.0000000  15.9949146  15.9949146  12.0000000  12.0000000  12.0000000  15.9949146   1.0078250   1.0078250
 NucSpn=           0           0           0           0           0           0           0           0           1           1
 AtZEff=   0.0000000   0.0000000   0.0000000   0.0000000   0.0000000   0.0000000   0.0000000   0.0000000   0.0000000   0.0000000
 NQMom=    0.0000000   0.0000000   0.0000000   0.0000000   0.0000000   0.0000000   0.0000000   0.0000000   0.0000000   0.0000000
 NMagM=    0.0000000   0.0000000   0.0000000   0.0000000   0.0000000   0.0000000   0.0000000   0.0000000   2.7928460   2.7928460

  Atom        21          22          23          24          25
 IAtWgt=           1           1           1           1           1
 AtmWgt=   1.0078250   1.0078250   1.0078250   1.0078250   1.0078250
 NucSpn=           1           1           1           1           1
 AtZEff=   0.0000000   0.0000000   0.0000000   0.0000000   0.0000000
 NQMom=    0.0000000   0.0000000   0.0000000   0.0000000   0.0000000
 NMagM=    2.7928460   2.7928460   2.7928460   2.7928460   2.7928460
 Leave Link  101 at Mon Oct 29 14:18:17 2012, MaxMem=  268435456 cpu:       0.2
 (Enter /home/est863/Gaussian/g09/l103.exe)

 GradGradGradGradGradGradGradGradGradGradGradGradGradGradGradGradGradGrad
 Berny optimization.
 Initialization pass.
                           ----------------------------
                           !    Initial Parameters    !
                           ! (Angstroms and Degrees)  !
 --------------------------                            --------------------------
 ! Name  Definition              Value          Derivative Info.                !
 --------------------------------------------------------------------------------
 ! R1    R(1,2)                  1.4436         estimate D2E/DX2                !
 ! R2    R(2,3)                  1.3481         estimate D2E/DX2                !
 ! R3    R(2,8)                  1.4149         estimate D2E/DX2                !
 ! R4    R(3,4)                  1.4063         estimate D2E/DX2                !
 ! R5    R(3,19)                 1.0899         estimate D2E/DX2                !
 ! R6    R(4,5)                  1.3557         estimate D2E/DX2                !
 ! R7    R(4,6)                  1.3558         estimate D2E/DX2                !
 ! R8    R(6,7)                  1.3176         estimate D2E/DX2                !
 ! R9    R(6,20)                 1.09           estimate D2E/DX2                !
 ! R10   R(7,8)                  1.4787         estimate D2E/DX2                !
 ! R11   R(7,21)                 1.09           estimate D2E/DX2                !
 ! R12   R(8,9)                  1.4245         estimate D2E/DX2                !
 ! R13   R(9,10)                 1.4796         estimate D2E/DX2                !
 ! R14   R(9,15)                 1.3729         estimate D2E/DX2                !
 ! R15   R(10,11)                1.3052         estimate D2E/DX2                !
 ! R16   R(10,22)                1.0901         estimate D2E/DX2                !
 ! R17   R(11,12)                1.5822         estimate D2E/DX2                !
 ! R18   R(11,17)                1.4174         estimate D2E/DX2                !
 ! R19   R(12,13)                1.4331         estimate D2E/DX2                !
 ! R20   R(12,14)                1.121          estimate D2E/DX2                !
 ! R21   R(15,16)                1.311          estimate D2E/DX2                !
 ! R22   R(15,23)                1.09           estimate D2E/DX2                !
 ! R23   R(16,17)                1.3297         estimate D2E/DX2                !
 ! R24   R(16,24)                1.09           estimate D2E/DX2                !
 ! R25   R(17,18)                1.4343         estimate D2E/DX2                !
 ! R26   R(18,25)                1.0501         estimate D2E/DX2                !
 ! A1    A(1,2,3)              115.7071         estimate D2E/DX2                !
 ! A2    A(1,2,8)              124.3405         estimate D2E/DX2                !
 ! A3    A(3,2,8)              119.8566         estimate D2E/DX2                !
 ! A4    A(2,3,4)              122.2812         estimate D2E/DX2                !
 ! A5    A(2,3,19)             118.8619         estimate D2E/DX2                !
 ! A6    A(4,3,19)             118.8569         estimate D2E/DX2                !
 ! A7    A(3,4,5)              121.6056         estimate D2E/DX2                !
 ! A8    A(3,4,6)              120.5568         estimate D2E/DX2                !
 ! A9    A(5,4,6)              117.836          estimate D2E/DX2                !
 ! A10   A(4,6,7)              118.4276         estimate D2E/DX2                !
 ! A11   A(4,6,20)             120.7842         estimate D2E/DX2                !
 ! A12   A(7,6,20)             120.7882         estimate D2E/DX2                !
 ! A13   A(6,7,8)              124.6436         estimate D2E/DX2                !
 ! A14   A(6,7,21)             117.6751         estimate D2E/DX2                !
 ! A15   A(8,7,21)             117.6813         estimate D2E/DX2                !
 ! A16   A(2,8,7)              114.2145         estimate D2E/DX2                !
 ! A17   A(2,8,9)              124.0421         estimate D2E/DX2                !
 ! A18   A(7,8,9)              121.7365         estimate D2E/DX2                !
 ! A19   A(8,9,10)             122.8731         estimate D2E/DX2                !
 ! A20   A(8,9,15)             122.9969         estimate D2E/DX2                !
 ! A21   A(10,9,15)            114.0765         estimate D2E/DX2                !
 ! A22   A(9,10,11)            125.4589         estimate D2E/DX2                !
 ! A23   A(9,10,22)            117.2699         estimate D2E/DX2                !
 ! A24   A(11,10,22)           117.2712         estimate D2E/DX2                !
 ! A25   A(10,11,12)           118.6407         estimate D2E/DX2                !
 ! A26   A(10,11,17)           113.6293         estimate D2E/DX2                !
 ! A27   A(12,11,17)           127.6781         estimate D2E/DX2                !
 ! A28   A(11,12,13)           119.1068         estimate D2E/DX2                !
 ! A29   A(11,12,14)           122.684          estimate D2E/DX2                !
 ! A30   A(13,12,14)           118.2092         estimate D2E/DX2                !
 ! A31   A(9,15,16)            121.4206         estimate D2E/DX2                !
 ! A32   A(9,15,23)            119.2903         estimate D2E/DX2                !
 ! A33   A(16,15,23)           119.2891         estimate D2E/DX2                !
 ! A34   A(15,16,17)           122.0876         estimate D2E/DX2                !
 ! A35   A(15,16,24)           118.9575         estimate D2E/DX2                !
 ! A36   A(17,16,24)           118.9549         estimate D2E/DX2                !
 ! A37   A(11,17,16)           123.2083         estimate D2E/DX2                !
 ! A38   A(11,17,18)           119.3557         estimate D2E/DX2                !
 ! A39   A(16,17,18)           117.436          estimate D2E/DX2                !
 ! A40   A(17,18,25)           109.4982         estimate D2E/DX2                !
 ! D1    D(1,2,3,4)            175.4183         estimate D2E/DX2                !
 ! D2    D(1,2,3,19)            -4.5778         estimate D2E/DX2                !
 ! D3    D(8,2,3,4)             -1.178          estimate D2E/DX2                !
 ! D4    D(8,2,3,19)           178.826          estimate D2E/DX2                !
 ! D5    D(1,2,8,7)           -175.3545         estimate D2E/DX2                !
 ! D6    D(1,2,8,9)              5.5842         estimate D2E/DX2                !
 ! D7    D(3,2,8,7)              0.9308         estimate D2E/DX2                !
 ! D8    D(3,2,8,9)           -178.1304         estimate D2E/DX2                !
 ! D9    D(2,3,4,5)           -179.3785         estimate D2E/DX2                !
 ! D10   D(2,3,4,6)              0.1546         estimate D2E/DX2                !
 ! D11   D(19,3,4,5)             0.6176         estimate D2E/DX2                !
 ! D12   D(19,3,4,6)          -179.8493         estimate D2E/DX2                !
 ! D13   D(3,4,6,7)              1.075          estimate D2E/DX2                !
 ! D14   D(3,4,6,20)          -178.9271         estimate D2E/DX2                !
 ! D15   D(5,4,6,7)           -179.3747         estimate D2E/DX2                !
 ! D16   D(5,4,6,20)             0.6232         estimate D2E/DX2                !
 ! D17   D(4,6,7,8)             -1.3047         estimate D2E/DX2                !
 ! D18   D(4,6,7,21)           178.6907         estimate D2E/DX2                !
 ! D19   D(20,6,7,8)           178.6974         estimate D2E/DX2                !
 ! D20   D(20,6,7,21)           -1.3071         estimate D2E/DX2                !
 ! D21   D(6,7,8,2)              0.3098         estimate D2E/DX2                !
 ! D22   D(6,7,8,9)            179.3952         estimate D2E/DX2                !
 ! D23   D(21,7,8,2)          -179.6856         estimate D2E/DX2                !
 ! D24   D(21,7,8,9)            -0.6002         estimate D2E/DX2                !
 ! D25   D(2,8,9,10)            48.3497         estimate D2E/DX2                !
 ! D26   D(2,8,9,15)          -128.8332         estimate D2E/DX2                !
 ! D27   D(7,8,9,10)          -130.6436         estimate D2E/DX2                !
 ! D28   D(7,8,9,15)            52.1735         estimate D2E/DX2                !
 ! D29   D(8,9,10,11)         -176.0306         estimate D2E/DX2                !
 ! D30   D(8,9,10,22)            3.9756         estimate D2E/DX2                !
 ! D31   D(15,9,10,11)           1.3818         estimate D2E/DX2                !
 ! D32   D(15,9,10,22)        -178.612          estimate D2E/DX2                !
 ! D33   D(8,9,15,16)          179.386          estimate D2E/DX2                !
 ! D34   D(8,9,15,23)           -0.6204         estimate D2E/DX2                !
 ! D35   D(10,9,15,16)           1.9773         estimate D2E/DX2                !
 ! D36   D(10,9,15,23)        -178.0291         estimate D2E/DX2                !
 ! D37   D(9,10,11,12)         179.1537         estimate D2E/DX2                !
 ! D38   D(9,10,11,17)          -3.2648         estimate D2E/DX2                !
 ! D39   D(22,10,11,12)         -0.8525         estimate D2E/DX2                !
 ! D40   D(22,10,11,17)        176.729          estimate D2E/DX2                !
 ! D41   D(10,11,12,13)         16.6873         estimate D2E/DX2                !
 ! D42   D(10,11,12,14)       -163.3304         estimate D2E/DX2                !
 ! D43   D(17,11,12,13)       -160.5129         estimate D2E/DX2                !
 ! D44   D(17,11,12,14)         19.4694         estimate D2E/DX2                !
 ! D45   D(10,11,17,16)          2.191          estimate D2E/DX2                !
 ! D46   D(10,11,17,18)       -177.7799         estimate D2E/DX2                !
 ! D47   D(12,11,17,16)        179.509          estimate D2E/DX2                !
 ! D48   D(12,11,17,18)         -0.4619         estimate D2E/DX2                !
 ! D49   D(9,15,16,17)          -3.087          estimate D2E/DX2                !
 ! D50   D(9,15,16,24)         176.9145         estimate D2E/DX2                !
 ! D51   D(23,15,16,17)        176.9194         estimate D2E/DX2                !
 ! D52   D(23,15,16,24)         -3.0791         estimate D2E/DX2                !
 ! D53   D(15,16,17,11)          0.9176         estimate D2E/DX2                !
 ! D54   D(15,16,17,18)       -179.111          estimate D2E/DX2                !
 ! D55   D(24,16,17,11)       -179.0838         estimate D2E/DX2                !
 ! D56   D(24,16,17,18)          0.8876         estimate D2E/DX2                !
 ! D57   D(11,17,18,25)        -60.0004         estimate D2E/DX2                !
 ! D58   D(16,17,18,25)        120.0271         estimate D2E/DX2                !
 --------------------------------------------------------------------------------
 Trust Radius=3.00D-01 FncErr=1.00D-07 GrdErr=1.00D-06
 Number of steps in this run= 134 maximum allowed number of steps= 150.
 GradGradGradGradGradGradGradGradGradGradGradGradGradGradGradGradGradGrad

 Leave Link  103 at Mon Oct 29 14:18:19 2012, MaxMem=  268435456 cpu:       0.0
 (Enter /home/est863/Gaussian/g09/l202.exe)
                          Input orientation:                          
 ---------------------------------------------------------------------
 Center     Atomic      Atomic             Coordinates (Angstroms)
 Number     Number       Type             X           Y           Z
 ---------------------------------------------------------------------
      1          9           0       -0.465600   42.069500    5.412400
      2          6           0        0.863600   42.632300    5.394400
      3          6           0        1.429600   42.756500    4.177200
      4          6           0        2.679500   43.373000    3.989500
      5          9           0        3.230400   43.501600    2.757500
      6          6           0        3.369300   43.868500    5.046300
      7          6           0        2.850500   43.738700    6.250500
      8          6           0        1.543700   43.109900    6.539500
      9          6           0        1.047200   42.990800    7.869400
     10          6           0        0.522700   41.721600    8.420200
     11          6           0       -0.010300   41.572100    9.602200
     12          6           0       -0.538900   40.140600   10.020200
     13          8           0       -0.109300   38.994000    9.275500
     14          8           0       -1.240100   39.981600   10.880200
     15          6           0        0.961100   44.054300    8.733400
     16          6           0        0.487800   43.911800    9.947700
     17          6           0        0.011500   42.751200   10.388500
     18          8           0       -0.499700   42.712600   11.728000
     19          1           0        0.900100   42.365600    3.308400
     20          1           0        4.330300   44.362500    4.903100
     21          1           0        3.425500   44.122000    7.093500
     22          1           0        0.586900   40.837500    7.785800
     23          1           0        1.293500   45.038300    8.402700
     24          1           0        0.484600   44.772000   10.617200
     25          1           0       -1.511400   42.431900   11.709100
 ---------------------------------------------------------------------
                    Distance matrix (angstroms):
                    1          2          3          4          5
     1  F    0.000000
     2  C    1.443551   0.000000
     3  C    2.364206   1.348094   0.000000
     4  C    3.689907   2.412441   1.406255   0.000000
     5  F    4.770725   3.648379   2.411141   1.355674   0.000000
     6  C    4.251692   2.815652   2.398815   1.355791   2.322179
     7  C    3.805937   2.429979   2.698564   2.296758   3.521589
     8  C    2.527859   1.414882   2.391312   2.803884   4.159556
     9  C    3.028895   2.507560   3.719337   4.226595   5.582007
    10  C    3.185064   3.178215   4.460553   5.197116   6.524279
    11  C    4.243716   4.426433   5.736440   6.479249   7.815051
    12  C    4.995783   5.438162   6.697654   7.561471   8.845946
    13  O    4.950676   5.408022   6.520528   7.409105   8.599789
    14  O    5.903898   6.445601   7.730303   8.622448   9.917360
    15  C    4.123584   3.630497   4.760539   5.091331   6.416119
    16  C    4.987182   4.744564   5.959897   6.371342   7.706432
    17  C    5.045187   5.067667   6.371129   6.960751   8.316043
    18  O    6.348350   6.479161   7.793504   8.392129   9.747104
    19  H    2.525792   2.103297   1.089948   2.155230   2.650337
    20  H    5.340215   3.905506   3.394146   2.130473   2.560181
    21  H    4.709513   3.416062   3.788537   3.279075   4.384502
    22  H    2.873779   3.002776   4.173092   5.021915   6.274498
    23  H    4.566191   3.876018   4.804163   4.916356   6.162898
    24  H    5.941071   5.656819   6.813873   7.120477   8.421889
    25  H    6.393236   6.749535   8.092241   8.834112  10.186269
                    6          7          8          9         10
     6  C    0.000000
     7  C    1.317611   0.000000
     8  C    2.477486   1.478728   0.000000
     9  C    3.759308   2.536155   1.424546   0.000000
    10  C    4.908718   3.767618   2.550853   1.479645   0.000000
    11  C    6.119753   4.910420   3.762961   2.476613   1.305206
    12  C    7.342407   6.216510   5.026852   3.907083   2.487279
    13  O    7.331271   6.357926   5.211405   4.391927   2.927587
    14  O    8.389812   7.230694   6.031375   4.832385   3.490940
    15  C    4.407795   3.135957   2.458559   1.372932   2.394113
    16  C    5.685828   4.391082   3.657020   2.341047   2.670478
    17  C    6.407986   5.114501   4.158257   2.734218   2.279387
    18  O    7.807072   6.502286   5.590515   4.166424   3.601239
    19  H    3.372826   3.787534   3.377604   4.606000   5.166011
    20  H    1.089983   2.096287   3.465826   4.632412   5.817402
    21  H    2.063601   1.090043   2.207359   2.745532   3.993532
    22  H    4.943033   3.987229   2.762704   2.203535   1.090054
    23  H    4.116163   2.957224   2.693110   2.130101   3.405134
    24  H    6.338196   5.072796   4.529007   3.322589   3.759415
    25  H    8.383195   7.108461   6.043019   4.647806   3.931787
                   11         12         13         14         15
    11  C    0.000000
    12  C    1.582193   0.000000
    13  O    2.600603   1.433118   0.000000
    14  O    2.382306   1.120965   2.197527   0.000000
    15  C    2.803524   4.384393   5.200602   5.103030   0.000000
    16  C    2.416955   3.909133   4.999314   4.393366   1.311047
    17  C    1.417399   2.693291   3.920448   3.078791   2.310663
    18  O    2.461560   3.087604   4.471594   2.953865   3.591897
    19  H    6.408618   7.215927   6.927688   8.221683   5.682082
    20  H    6.979161   8.229111   8.224884   9.270780   5.110547
    21  H    4.959868   6.335107   6.599418   7.297248   2.960933
    22  H    2.048315   2.597237   2.470302   3.694023   3.374281
    23  H    3.892716   5.473706   6.266035   6.174735   1.090004
    24  H    3.393304   4.780568   5.961389   5.098205   2.071436
    25  H    2.726093   3.008022   4.439307   2.600894   4.195263
                   16         17         18         19         20
    16  C    0.000000
    17  C    1.329721   0.000000
    18  O    2.362775   1.434251   0.000000
    19  H    6.829424   7.146056   8.542219   0.000000
    20  H    6.357352   7.165049   8.522343   4.277493   0.000000
    21  H    4.101307   4.938777   6.234757   4.877455   2.382091
    22  H    3.759648   3.281369   4.498627   4.741339   5.894797
    23  H    2.074893   3.289035   4.436448   5.766280   4.682527
    24  H    1.090039   2.088004   2.538474   7.705969   6.899858
    25  H    3.047857   2.040873   1.050089   8.740222   9.174656
                   21         22         23         24         25
    21  H    0.000000
    22  H    4.396006   0.000000
    23  H    2.664401   4.304250   0.000000
    24  H    4.635499   4.848462   2.372603   0.000000
    25  H    6.966576   4.726231   5.058959   3.263791   0.000000
 Stoichiometry    C13H7F2O3(1-)
 Framework group  C1[X(C13H7F2O3)]
 Deg. of freedom    69
 Full point group                 C1      NOp   1
 Largest Abelian subgroup         C1      NOp   1
 Largest concise Abelian subgroup C1      NOp   1
                         Standard orientation:                         
 ---------------------------------------------------------------------
 Center     Atomic      Atomic             Coordinates (Angstroms)
 Number     Number       Type             X           Y           Z
 ---------------------------------------------------------------------
      1          9           0       -1.227892   -1.618418    1.555557
      2          6           0       -1.942119   -0.738278    0.661647
      3          6           0       -3.264311   -0.972871    0.542769
      4          6           0       -4.109145   -0.142934   -0.215527
      5          9           0       -5.439332   -0.384657   -0.315653
      6          6           0       -3.611369    0.937667   -0.865673
      7          6           0       -2.317997    1.176470   -0.786543
      8          6           0       -1.358598    0.361377   -0.010776
      9          6           0        0.031912    0.669242    0.021375
     10          6           0        1.084167   -0.341530   -0.224491
     11          6           0        2.369609   -0.133262   -0.136019
     12          6           0        3.354332   -1.339816   -0.415089
     13          8           0        2.859615   -2.500575   -1.094589
     14          8           0        4.430836   -1.327255   -0.102766
     15          6           0        0.514797    1.914876    0.337851
     16          6           0        1.802129    2.161070    0.369627
     17          6           0        2.708376    1.211248    0.158171
     18          8           0        4.090270    1.587320    0.235732
     19          1           0       -3.693443   -1.835676    1.052083
     20          1           0       -4.265652    1.593301   -1.440235
     21          1           0       -1.927548    2.035851   -1.331710
     22          1           0        0.758583   -1.343884   -0.502878
     23          1           0       -0.187237    2.716436    0.567541
     24          1           0        2.140304    3.176576    0.575953
     25          1           0        4.563539    1.029595    0.989155
 ---------------------------------------------------------------------
 Rotational constants (GHZ):      0.9167232      0.2073217      0.1821089
 Leave Link  202 at Mon Oct 29 14:18:23 2012, MaxMem=  268435456 cpu:       0.1
 (Enter /home/est863/Gaussian/g09/l301.exe)
 Standard basis: 6-31+G(d,p) (6D, 7F)
 Ernie: Thresh=  0.10000D-02 Tol=  0.10000D-05 Strict=F.
 There are   377 symmetry adapted basis functions of A   symmetry.
 Integral buffers will be    131072 words long.
 Raffenetti 2 integral format.
 Two-electron integral symmetry is turned on.
   377 basis functions,   625 primitive gaussians,   377 cartesian basis functions
    64 alpha electrons       64 beta electrons
       nuclear repulsion energy      1206.8201508048 Hartrees.
 IExCor=  402 DFT=T Ex+Corr=B3LYP ExCW=0 ScaHFX=  0.200000
 ScaDFX=  0.800000  0.720000  1.000000  0.810000 ScalE2=  1.000000  1.000000
 IRadAn=      0 IRanWt=     -1 IRanGd=            0 ICorTp=0
 NAtoms=   25 NActive=   25 NUniq=   25 SFac= 7.50D-01 NAtFMM=   80 NAOKFM=F Big=F
 ------------------------------------------------------------------------------
 Polarizable Continuum Model (PCM)
 =================================
 Model                : PCM.
 Atomic radii         : UFF (Universal Force Field).
 Polarization charges : Total charges.
 Charge compensation  : None.
 Solution method      : Matrix inversion.
 Cavity type          : Scaled VdW (van der Waals Surface) (Alpha=1.100).
 Cavity algorithm     : GePol (No added spheres)
                        Default sphere list used, NSphG=   25.
                        Lebedev-Laikov grids with approx.  5.0 points / Ang**2.
                        Smoothing algorithm: Karplus/York (Gamma=1.0000).
                        Polarization charges: spherical gaussians, with
                                              point-specific exponents (IZeta= 3).
                        Self-potential: point-specific (ISelfS= 7).
                        Self-field    : sphere-specific E.n sum rule (ISelfD= 2).
 1st derivatives      : Analytical E(r).r(x)/FMM algorithm (CHGder, D1EAlg=3).
                        Cavity 1st derivative terms included.
 Solvent              : Water, Eps=  78.355300 Eps(inf)=   1.777849
 ------------------------------------------------------------------------------
 GePol: Number of generator spheres                  =      25
 GePol: Total number of spheres                      =      25
 GePol: Number of exposed spheres                    =      25 (100.00%)
 GePol: Number of points                             =    2235
 GePol: Average weight of points                     =       0.13
 GePol: Minimum weight of points                     =   0.54D-11
 GePol: Maximum weight of points                     =    0.20577
 GePol: Number of points with low weight             =     128
 GePol: Fraction of low-weight points (<1% of avg)   =       5.73%
 GePol: Cavity surface area                          =    288.781 Ang**2
 GePol: Cavity volume                                =    303.976 Ang**3
 Leave Link  301 at Mon Oct 29 14:18:25 2012, MaxMem=  268435456 cpu:       0.1
 (Enter /home/est863/Gaussian/g09/l302.exe)
 NPDir=0 NMtPBC=     1 NCelOv=     1 NCel=       1 NClECP=     1 NCelD=      1
         NCelK=      1 NCelE2=     1 NClLst=     1 CellRange=     0.0.
 One-electron integrals computed using PRISM.
 NBasis=   377 RedAO= T  NBF=   377
 NBsUse=   376 1.00D-06 NBFU=   376
 Precomputing XC quadrature grid using
 IXCGrd= 2 IRadAn=           0 IRanWt=          -1 IRanGd=           0 AccXCQ= 1.00D-10.
 NRdTot=    1620 NPtTot=      207114 NUsed=      218792 NTot=      218824
 NSgBfM=   374   374   374   374   374 NAtAll=    25    25.
 Leave Link  302 at Mon Oct 29 14:18:54 2012, MaxMem=  268435456 cpu:       1.2
 (Enter /home/est863/Gaussian/g09/l303.exe)
 DipDrv:  MaxL=1.
 Leave Link  303 at Mon Oct 29 14:19:04 2012, MaxMem=  268435456 cpu:       0.1
 (Enter /home/est863/Gaussian/g09/l401.exe)
 Harris functional with IExCor=  402 diagonalized for initial guess.
 ExpMin= 4.38D-02 ExpMax= 7.00D+03 ExpMxC= 1.05D+03 IAcc=2 IRadAn=         0 AccDes= 0.00D+00
 HarFok:  IExCor=  402 AccDes= 0.00D+00 IRadAn=         0 IDoV= 1
 ScaDFX=  1.000000  1.000000  1.000000  1.000000
 FoFCou: FMM=F IPFlag=           0 FMFlag=      100000 FMFlg1=           0
         NFxFlg=           0 DoJE=T BraDBF=F KetDBF=T FulRan=T
         Omega=  0.000000  0.000000  1.000000  0.000000  0.000000 ICntrl=     500 IOpCl=  0
         NMat0=    1 NMatS0=    1 NMatT0=    0 NMatD0=    1 NMtDS0=    0 NMtDT0=    0
         I1Cent=           4 NGrid=           0.
 Petite list used in FoFCou.
 Harris En= -925.233795908567    
 Initial guess orbital symmetries:
       Occupied  (A) (A) (A) (A) (A) (A) (A) (A) (A) (A) (A) (A)
                 (A) (A) (A) (A) (A) (A) (A) (A) (A) (A) (A) (A)
                 (A) (A) (A) (A) (A) (A) (A) (A) (A) (A) (A) (A)
                 (A) (A) (A) (A) (A) (A) (A) (A) (A) (A) (A) (A)
                 (A) (A) (A) (A) (A) (A) (A) (A) (A) (A) (A) (A)
                 (A) (A) (A) (A)
       Virtual   (A) (A) (A) (A) (A) (A) (A) (A) (A) (A) (A) (A)
                 (A) (A) (A) (A) (A) (A) (A) (A) (A) (A) (A) (A)
                 (A) (A) (A) (A) (A) (A) (A) (A) (A) (A) (A) (A)
                 (A) (A) (A) (A) (A) (A) (A) (A) (A) (A) (A) (A)
                 (A) (A) (A) (A) (A) (A) (A) (A) (A) (A) (A) (A)
                 (A) (A) (A) (A) (A) (A) (A) (A) (A) (A) (A) (A)
                 (A) (A) (A) (A) (A) (A) (A) (A) (A) (A) (A) (A)
                 (A) (A) (A) (A) (A) (A) (A) (A) (A) (A) (A) (A)
                 (A) (A) (A) (A) (A) (A) (A) (A) (A) (A) (A) (A)
                 (A) (A) (A) (A) (A) (A) (A) (A) (A) (A) (A) (A)
                 (A) (A) (A) (A) (A) (A) (A) (A) (A) (A) (A) (A)
                 (A) (A) (A) (A) (A) (A) (A) (A) (A) (A) (A) (A)
                 (A) (A) (A) (A) (A) (A) (A) (A) (A) (A) (A) (A)
                 (A) (A) (A) (A) (A) (A) (A) (A) (A) (A) (A) (A)
                 (A) (A) (A) (A) (A) (A) (A) (A) (A) (A) (A) (A)
                 (A) (A) (A) (A) (A) (A) (A) (A) (A) (A) (A) (A)
                 (A) (A) (A) (A) (A) (A) (A) (A) (A) (A) (A) (A)
                 (A) (A) (A) (A) (A) (A) (A) (A) (A) (A) (A) (A)
                 (A) (A) (A) (A) (A) (A) (A) (A) (A) (A) (A) (A)
                 (A) (A) (A) (A) (A) (A) (A) (A) (A) (A) (A) (A)
                 (A) (A) (A) (A) (A) (A) (A) (A) (A) (A) (A) (A)
                 (A) (A) (A) (A) (A) (A) (A) (A) (A) (A) (A) (A)
                 (A) (A) (A) (A) (A) (A) (A) (A) (A) (A) (A) (A)
                 (A) (A) (A) (A) (A) (A) (A) (A) (A) (A) (A) (A)
                 (A) (A) (A) (A) (A) (A) (A) (A) (A) (A) (A) (A)
                 (A) (A) (A) (A) (A) (A) (A) (A) (A) (A) (A) (A)
 The electronic state of the initial guess is 1-A.
 Leave Link  401 at Mon Oct 29 14:20:32 2012, MaxMem=  268435456 cpu:       9.1
 (Enter /home/est863/Gaussian/g09/l502.exe)
 Closed shell SCF:
 Requested convergence on RMS density matrix=1.00D-08 within 128 cycles.
 Requested convergence on MAX density matrix=1.00D-06.
 Requested convergence on             energy=1.00D-06.
 No special actions if energy rises.
 Using DIIS extrapolation, IDIIS=  1040.
 Integral symmetry usage will be decided dynamically.
       218554 words used for storage of precomputed grid.
 IEnd=      668149 IEndB=      668149 NGot=   268435456 MDV=   267926454
 LenX=   267926454 LenY=   267783884
 Fock matrices will be formed incrementally for  20 cycles.

 Cycle   1  Pass 1  IDiag  1:
 FoFCou: FMM=F IPFlag=           0 FMFlag=      100000 FMFlg1=           0
         NFxFlg=           0 DoJE=F BraDBF=F KetDBF=F FulRan=T
         Omega=  0.000000  0.000000  1.000000  0.000000  0.000000 ICntrl=       0 IOpCl=  0
         NMat0=    1 NMatS0=    1 NMatT0=    0 NMatD0=    1 NMtDS0=    0 NMtDT0=    0
         I1Cent=           0 NGrid=           0.
 Symmetry not used in FoFCou.
 E= -924.582802319073    
 DIIS: error= 2.78D-02 at cycle   1 NSaved=   1.
 NSaved= 1 IEnMin= 1 EnMin= -924.582802319073     IErMin= 1 ErrMin= 2.78D-02
 ErrMax= 2.78D-02 EMaxC= 1.00D-01 BMatC= 5.30D-01 BMatP= 5.30D-01
 IDIUse=3 WtCom= 7.22D-01 WtEn= 2.78D-01
 Coeff-Com:  0.100D+01
 Coeff-En:   0.100D+01
 Coeff:      0.100D+01
 Gap=     0.188 Goal=   None    Shift=    0.000
 GapD=    0.188 DampG=1.000 DampE=0.500 DampFc=0.5000 IDamp=-1.
 Damping current iteration by 5.00D-01
 RMSDP=1.75D-01 MaxDP=9.60D+00              OVMax= 4.03D-01

 Cycle   2  Pass 1  IDiag  1:
 RMSU=  5.65D-02    CP:  1.31D+00
 E= -924.701219298693     Delta-E=       -0.118416979620 Rises=F Damp=T
 DIIS: error= 1.14D-02 at cycle   2 NSaved=   2.
 NSaved= 2 IEnMin= 2 EnMin= -924.701219298693     IErMin= 2 ErrMin= 1.14D-02
 ErrMax= 1.14D-02 EMaxC= 1.00D-01 BMatC= 8.61D-02 BMatP= 5.30D-01
 IDIUse=3 WtCom= 8.86D-01 WtEn= 1.14D-01
 Coeff-Com:  0.223D+00 0.777D+00
 Coeff-En:   0.364D+00 0.636D+00
 Coeff:      0.239D+00 0.761D+00
 Gap=     0.217 Goal=   None    Shift=    0.000
 RMSDP=8.99D-02 MaxDP=6.27D+00 DE=-1.18D-01 OVMax= 3.23D-01

 Cycle   3  Pass 1  IDiag  1:
 RMSU=  1.83D-02    CP:  9.04D-01  9.15D-02
 E= -924.988362055792     Delta-E=       -0.287142757099 Rises=F Damp=F
 DIIS: error= 1.46D-02 at cycle   3 NSaved=   3.
 NSaved= 3 IEnMin= 3 EnMin= -924.988362055792     IErMin= 2 ErrMin= 1.14D-02
 ErrMax= 1.46D-02 EMaxC= 1.00D-01 BMatC= 9.80D-02 BMatP= 8.61D-02
 IDIUse=2 WtCom= 0.00D+00 WtEn= 1.00D+00
 Coeff-En:   0.000D+00 0.000D+00 0.100D+01
 Coeff:      0.000D+00 0.000D+00 0.100D+01
 Gap=     0.182 Goal=   None    Shift=    0.000
 RMSDP=6.22D-02 MaxDP=3.58D+00 DE=-2.87D-01 OVMax= 4.76D-01

 Cycle   4  Pass 1  IDiag  1:
 RMSU=  2.65D-02    CP:  9.78D-01  6.44D-01  1.88D-01
 E= -924.263452276257     Delta-E=        0.724909779535 Rises=F Damp=F
 DIIS: error= 4.47D-02 at cycle   4 NSaved=   4.
 NSaved= 4 IEnMin= 3 EnMin= -924.988362055792     IErMin= 2 ErrMin= 1.14D-02
 ErrMax= 4.47D-02 EMaxC= 1.00D-01 BMatC= 8.84D-01 BMatP= 8.61D-02
 IDIUse=2 WtCom= 0.00D+00 WtEn= 1.00D+00
 Coeff-En:   0.000D+00 0.000D+00 0.860D+00 0.140D+00
 Coeff:      0.000D+00 0.000D+00 0.860D+00 0.140D+00
 Gap=     0.075 Goal=   None    Shift=    0.000
 RMSDP=5.32D-02 MaxDP=3.29D+00 DE= 7.25D-01 OVMax= 3.52D-01

 Cycle   5  Pass 1  IDiag  1:
 RMSU=  5.08D-03    CP:  8.54D-01  1.40D-01  6.08D-01  2.32D-01
 E= -924.997895999433     Delta-E=       -0.734443723175 Rises=F Damp=F
 DIIS: error= 1.46D-02 at cycle   5 NSaved=   5.
 NSaved= 5 IEnMin= 5 EnMin= -924.997895999433     IErMin= 2 ErrMin= 1.14D-02
 ErrMax= 1.46D-02 EMaxC= 1.00D-01 BMatC= 8.92D-02 BMatP= 8.61D-02
 IDIUse=3 WtCom= 8.54D-01 WtEn= 1.46D-01
 Coeff-Com:  0.135D-01 0.375D-01 0.424D+00-0.538D-01 0.579D+00
 Coeff-En:   0.000D+00 0.000D+00 0.477D+00 0.000D+00 0.523D+00
 Coeff:      0.115D-01 0.320D-01 0.432D+00-0.460D-01 0.571D+00
 Gap=     0.153 Goal=   None    Shift=    0.000
 RMSDP=9.15D-03 MaxDP=5.27D-01 DE=-7.34D-01 OVMax= 1.05D-01

 Cycle   6  Pass 1  IDiag  1:
 RMSU=  1.42D-03    CP:  8.62D-01  8.12D-02  8.03D-01  1.01D-01  6.32D-01
 E= -925.069598651292     Delta-E=       -0.071702651859 Rises=F Damp=F
 DIIS: error= 6.81D-04 at cycle   6 NSaved=   6.
 NSaved= 6 IEnMin= 6 EnMin= -925.069598651292     IErMin= 6 ErrMin= 6.81D-04
 ErrMax= 6.81D-04 EMaxC= 1.00D-01 BMatC= 5.19D-04 BMatP= 8.61D-02
 IDIUse=3 WtCom= 9.93D-01 WtEn= 6.81D-03
 Coeff-Com:  0.428D-02 0.911D-03 0.203D+00-0.279D-01 0.287D+00 0.532D+00
 Coeff-En:   0.000D+00 0.000D+00 0.000D+00 0.000D+00 0.000D+00 0.100D+01
 Coeff:      0.426D-02 0.905D-03 0.202D+00-0.277D-01 0.285D+00 0.535D+00
 Gap=     0.159 Goal=   None    Shift=    0.000
 RMSDP=1.06D-03 MaxDP=5.32D-02 DE=-7.17D-02 OVMax= 8.57D-03

 Cycle   7  Pass 1  IDiag  1:
 RMSU=  6.24D-04    CP:  8.62D-01  8.20D-02  8.02D-01  9.60D-02  6.07D-01
                    CP:  7.42D-01
 E= -925.070030668304     Delta-E=       -0.000432017012 Rises=F Damp=F
 DIIS: error= 3.45D-04 at cycle   7 NSaved=   7.
 NSaved= 7 IEnMin= 7 EnMin= -925.070030668304     IErMin= 7 ErrMin= 3.45D-04
 ErrMax= 3.45D-04 EMaxC= 1.00D-01 BMatC= 1.31D-04 BMatP= 5.19D-04
 IDIUse=3 WtCom= 9.97D-01 WtEn= 3.45D-03
 Coeff-Com:  0.162D-02-0.860D-02 0.353D-01-0.286D-02 0.310D-01 0.276D+00
 Coeff-Com:  0.667D+00
 Coeff-En:   0.000D+00 0.000D+00 0.000D+00 0.000D+00 0.000D+00 0.144D+00
 Coeff-En:   0.856D+00
 Coeff:      0.162D-02-0.857D-02 0.352D-01-0.285D-02 0.309D-01 0.276D+00
 Coeff:      0.668D+00
 Gap=     0.160 Goal=   None    Shift=    0.000
 RMSDP=5.71D-04 MaxDP=6.95D-02 DE=-4.32D-04 OVMax= 4.03D-03

 Cycle   8  Pass 1  IDiag  1:
 RMSU=  1.77D-04    CP:  8.64D-01  8.06D-02  8.14D-01  9.61D-02  6.01D-01
                    CP:  8.22D-01  7.24D-01
 E= -925.070146615960     Delta-E=       -0.000115947656 Rises=F Damp=F
 DIIS: error= 8.63D-05 at cycle   8 NSaved=   8.
 NSaved= 8 IEnMin= 8 EnMin= -925.070146615960     IErMin= 8 ErrMin= 8.63D-05
 ErrMax= 8.63D-05 EMaxC= 1.00D-01 BMatC= 1.49D-05 BMatP= 1.31D-04
 IDIUse=1 WtCom= 1.00D+00 WtEn= 0.00D+00
 Coeff-Com:  0.103D-02-0.448D-02 0.809D-02-0.169D-03-0.157D-02 0.130D+00
 Coeff-Com:  0.408D+00 0.458D+00
 Coeff:      0.103D-02-0.448D-02 0.809D-02-0.169D-03-0.157D-02 0.130D+00
 Coeff:      0.408D+00 0.458D+00
 Gap=     0.160 Goal=   None    Shift=    0.000
 RMSDP=1.44D-04 MaxDP=1.22D-02 DE=-1.16D-04 OVMax= 1.48D-03

 Cycle   9  Pass 1  IDiag  1:
 RMSU=  5.20D-05    CP:  8.64D-01  7.99D-02  8.12D-01  9.57D-02  6.02D-01
                    CP:  8.30D-01  7.56D-01  8.15D-01
 E= -925.070160859631     Delta-E=       -0.000014243672 Rises=F Damp=F
 DIIS: error= 2.41D-05 at cycle   9 NSaved=   9.
 NSaved= 9 IEnMin= 9 EnMin= -925.070160859631     IErMin= 9 ErrMin= 2.41D-05
 ErrMax= 2.41D-05 EMaxC= 1.00D-01 BMatC= 6.30D-07 BMatP= 1.49D-05
 IDIUse=1 WtCom= 1.00D+00 WtEn= 0.00D+00
 Coeff-Com:  0.478D-03-0.117D-02 0.513D-03 0.143D-03-0.433D-02 0.391D-01
 Coeff-Com:  0.141D+00 0.233D+00 0.591D+00
 Coeff:      0.478D-03-0.117D-02 0.513D-03 0.143D-03-0.433D-02 0.391D-01
 Coeff:      0.141D+00 0.233D+00 0.591D+00
 Gap=     0.160 Goal=   None    Shift=    0.000
 RMSDP=3.48D-05 MaxDP=3.36D-03 DE=-1.42D-05 OVMax= 3.68D-04

 Cycle  10  Pass 1  IDiag  1:
 RMSU=  1.91D-05    CP:  8.64D-01  7.99D-02  8.12D-01  9.56D-02  6.03D-01
                    CP:  8.28D-01  7.60D-01  8.21D-01  7.33D-01
 E= -925.070161458001     Delta-E=       -0.000000598369 Rises=F Damp=F
 DIIS: error= 9.57D-06 at cycle  10 NSaved=  10.
 NSaved=10 IEnMin=10 EnMin= -925.070161458001     IErMin=10 ErrMin= 9.57D-06
 ErrMax= 9.57D-06 EMaxC= 1.00D-01 BMatC= 8.56D-08 BMatP= 6.30D-07
 IDIUse=1 WtCom= 1.00D+00 WtEn= 0.00D+00
 Coeff-Com:  0.175D-03-0.300D-03-0.576D-03 0.126D-03-0.221D-02 0.897D-02
 Coeff-Com:  0.376D-01 0.866D-01 0.338D+00 0.531D+00
 Coeff:      0.175D-03-0.300D-03-0.576D-03 0.126D-03-0.221D-02 0.897D-02
 Coeff:      0.376D-01 0.866D-01 0.338D+00 0.531D+00
 Gap=     0.160 Goal=   None    Shift=    0.000
 RMSDP=1.53D-05 MaxDP=1.83D-03 DE=-5.98D-07 OVMax= 9.52D-05

 Cycle  11  Pass 1  IDiag  1:
 RMSU=  6.80D-06    CP:  8.64D-01  7.99D-02  8.12D-01  9.56D-02  6.02D-01
                    CP:  8.31D-01  7.64D-01  8.32D-01  7.63D-01  7.28D-01
 E= -925.070161541994     Delta-E=       -0.000000083993 Rises=F Damp=F
 DIIS: error= 3.60D-06 at cycle  11 NSaved=  11.
 NSaved=11 IEnMin=11 EnMin= -925.070161541994     IErMin=11 ErrMin= 3.60D-06
 ErrMax= 3.60D-06 EMaxC= 1.00D-01 BMatC= 7.75D-09 BMatP= 8.56D-08
 IDIUse=1 WtCom= 1.00D+00 WtEn= 0.00D+00
 Coeff-Com:  0.222D-04-0.369D-04-0.353D-03 0.493D-04-0.460D-03-0.534D-04
 Coeff-Com:  0.189D-02 0.164D-01 0.947D-01 0.225D+00 0.663D+00
 Coeff:      0.222D-04-0.369D-04-0.353D-03 0.493D-04-0.460D-03-0.534D-04
 Coeff:      0.189D-02 0.164D-01 0.947D-01 0.225D+00 0.663D+00
 Gap=     0.160 Goal=   None    Shift=    0.000
 RMSDP=3.93D-06 MaxDP=3.00D-04 DE=-8.40D-08 OVMax= 1.78D-05

 Cycle  12  Pass 1  IDiag  1:
 RMSU=  1.47D-06    CP:  8.64D-01  7.99D-02  8.12D-01  9.56D-02  6.02D-01
                    CP:  8.31D-01  7.63D-01  8.42D-01  7.76D-01  7.48D-01
                    CP:  1.00D+00
 E= -925.070161547963     Delta-E=       -0.000000005969 Rises=F Damp=F
 DIIS: error= 1.31D-06 at cycle  12 NSaved=  12.
 NSaved=12 IEnMin=12 EnMin= -925.070161547963     IErMin=12 ErrMin= 1.31D-06
 ErrMax= 1.31D-06 EMaxC= 1.00D-01 BMatC= 1.21D-09 BMatP= 7.75D-09
 IDIUse=1 WtCom= 1.00D+00 WtEn= 0.00D+00
 Coeff-Com: -0.132D-04 0.384D-04-0.157D-03 0.513D-05 0.340D-04-0.125D-02
 Coeff-Com: -0.389D-02-0.168D-02 0.732D-02 0.455D-01 0.325D+00 0.629D+00
 Coeff:     -0.132D-04 0.384D-04-0.157D-03 0.513D-05 0.340D-04-0.125D-02
 Coeff:     -0.389D-02-0.168D-02 0.732D-02 0.455D-01 0.325D+00 0.629D+00
 Gap=     0.160 Goal=   None    Shift=    0.000
 RMSDP=1.23D-06 MaxDP=8.07D-05 DE=-5.97D-09 OVMax= 9.12D-06

 Cycle  13  Pass 1  IDiag  1:
 RMSU=  6.00D-07    CP:  8.64D-01  7.99D-02  8.12D-01  9.57D-02  6.02D-01
                    CP:  8.31D-01  7.63D-01  8.42D-01  7.75D-01  7.65D-01
                    CP:  1.04D+00  9.14D-01
 E= -925.070161548900     Delta-E=       -0.000000000937 Rises=F Damp=F
 DIIS: error= 3.21D-07 at cycle  13 NSaved=  13.
 NSaved=13 IEnMin=13 EnMin= -925.070161548900     IErMin=13 ErrMin= 3.21D-07
 ErrMax= 3.21D-07 EMaxC= 1.00D-01 BMatC= 9.86D-11 BMatP= 1.21D-09
 IDIUse=1 WtCom= 1.00D+00 WtEn= 0.00D+00
 Coeff-Com: -0.954D-05 0.221D-04-0.541D-04-0.876D-06 0.520D-04-0.627D-03
 Coeff-Com: -0.204D-02-0.195D-02-0.394D-02 0.160D-02 0.872D-01 0.290D+00
 Coeff-Com:  0.630D+00
 Coeff:     -0.954D-05 0.221D-04-0.541D-04-0.876D-06 0.520D-04-0.627D-03
 Coeff:     -0.204D-02-0.195D-02-0.394D-02 0.160D-02 0.872D-01 0.290D+00
 Coeff:      0.630D+00
 Gap=     0.160 Goal=   None    Shift=    0.000
 RMSDP=3.59D-07 MaxDP=2.11D-05 DE=-9.37D-10 OVMax= 2.18D-06

 Cycle  14  Pass 1  IDiag  1:
 RMSU=  1.68D-07    CP:  8.64D-01  7.99D-02  8.12D-01  9.57D-02  6.02D-01
                    CP:  8.31D-01  7.64D-01  8.42D-01  7.76D-01  7.70D-01
                    CP:  1.04D+00  9.50D-01  1.07D+00
 E= -925.070161548953     Delta-E=       -0.000000000053 Rises=F Damp=F
 DIIS: error= 1.28D-07 at cycle  14 NSaved=  14.
 NSaved=14 IEnMin=14 EnMin= -925.070161548953     IErMin=14 ErrMin= 1.28D-07
 ErrMax= 1.28D-07 EMaxC= 1.00D-01 BMatC= 1.26D-11 BMatP= 9.86D-11
 IDIUse=1 WtCom= 1.00D+00 WtEn= 0.00D+00
 Coeff-Com: -0.358D-05 0.520D-05-0.540D-05-0.833D-06 0.262D-04-0.153D-03
 Coeff-Com: -0.512D-03-0.740D-03-0.325D-02-0.627D-02-0.141D-02 0.703D-01
 Coeff-Com:  0.351D+00 0.591D+00
 Coeff:     -0.358D-05 0.520D-05-0.540D-05-0.833D-06 0.262D-04-0.153D-03
 Coeff:     -0.512D-03-0.740D-03-0.325D-02-0.627D-02-0.141D-02 0.703D-01
 Coeff:      0.351D+00 0.591D+00
 Gap=     0.160 Goal=   None    Shift=    0.000
 RMSDP=2.24D-07 MaxDP=3.42D-05 DE=-5.28D-11 OVMax= 8.19D-07

 Cycle  15  Pass 1  IDiag  1:
 RMSU=  4.88D-08    CP:  8.64D-01  7.99D-02  8.12D-01  9.57D-02  6.02D-01
                    CP:  8.31D-01  7.64D-01  8.42D-01  7.76D-01  7.68D-01
                    CP:  1.05D+00  9.80D-01  1.07D+00  7.50D-01
 E= -925.070161548960     Delta-E=       -0.000000000008 Rises=F Damp=F
 DIIS: error= 2.85D-08 at cycle  15 NSaved=  15.
 NSaved=15 IEnMin=15 EnMin= -925.070161548960     IErMin=15 ErrMin= 2.85D-08
 ErrMax= 2.85D-08 EMaxC= 1.00D-01 BMatC= 5.60D-13 BMatP= 1.26D-11
 IDIUse=1 WtCom= 1.00D+00 WtEn= 0.00D+00
 Coeff-Com: -0.947D-06 0.111D-05 0.452D-06-0.299D-06 0.743D-05-0.304D-04
 Coeff-Com: -0.953D-04-0.167D-03-0.101D-02-0.254D-02-0.516D-02 0.156D-01
 Coeff-Com:  0.115D+00 0.270D+00 0.608D+00
 Coeff:     -0.947D-06 0.111D-05 0.452D-06-0.299D-06 0.743D-05-0.304D-04
 Coeff:     -0.953D-04-0.167D-03-0.101D-02-0.254D-02-0.516D-02 0.156D-01
 Coeff:      0.115D+00 0.270D+00 0.608D+00
 Gap=     0.160 Goal=   None    Shift=    0.000
 RMSDP=2.74D-08 MaxDP=2.21D-06 DE=-7.73D-12 OVMax= 1.98D-07

 Cycle  16  Pass 1  IDiag  1:
 RMSU=  1.30D-08    CP:  8.64D-01  7.99D-02  8.12D-01  9.57D-02  6.02D-01
                    CP:  8.31D-01  7.64D-01  8.42D-01  7.76D-01  7.68D-01
                    CP:  1.05D+00  9.82D-01  1.08D+00  8.08D-01  9.09D-01
 E= -925.070161548996     Delta-E=       -0.000000000035 Rises=F Damp=F
 DIIS: error= 8.97D-09 at cycle  16 NSaved=  16.
 NSaved=16 IEnMin=16 EnMin= -925.070161548996     IErMin=16 ErrMin= 8.97D-09
 ErrMax= 8.97D-09 EMaxC= 1.00D-01 BMatC= 1.05D-13 BMatP= 5.60D-13
 IDIUse=1 WtCom= 1.00D+00 WtEn= 0.00D+00
 Coeff-Com:  0.682D-08-0.411D-07 0.101D-05-0.621D-07 0.223D-06 0.378D-05
 Coeff-Com:  0.178D-04 0.725D-05-0.111D-03-0.524D-03-0.270D-02-0.117D-02
 Coeff-Com:  0.118D-01 0.665D-01 0.329D+00 0.597D+00
 Coeff:      0.682D-08-0.411D-07 0.101D-05-0.621D-07 0.223D-06 0.378D-05
 Coeff:      0.178D-04 0.725D-05-0.111D-03-0.524D-03-0.270D-02-0.117D-02
 Coeff:      0.118D-01 0.665D-01 0.329D+00 0.597D+00
 Gap=     0.160 Goal=   None    Shift=    0.000
 RMSDP=8.32D-09 MaxDP=6.10D-07 DE=-3.55D-11 OVMax= 5.58D-08

 Error on total polarization charges =  0.02272
 SCF Done:  E(RB3LYP) =  -925.070161549     A.U. after   16 cycles
             Convg  =    0.8319D-08             -V/T =  2.0082
 KE= 9.175008546976D+02 PE=-4.595789226894D+03 EE= 1.546398059842D+03
 Leave Link  502 at Mon Oct 29 15:18:57 2012, MaxMem=  268435456 cpu:     835.5
 (Enter /home/est863/Gaussian/g09/l601.exe)
 Copying SCF densities to generalized density rwf, IOpCl= 0 IROHF=0.

 **********************************************************************

            Population analysis using the SCF density.

 **********************************************************************

 Orbital symmetries:
       Occupied  (A) (A) (A) (A) (A) (A) (A) (A) (A) (A) (A) (A)
                 (A) (A) (A) (A) (A) (A) (A) (A) (A) (A) (A) (A)
                 (A) (A) (A) (A) (A) (A) (A) (A) (A) (A) (A) (A)
                 (A) (A) (A) (A) (A) (A) (A) (A) (A) (A) (A) (A)
                 (A) (A) (A) (A) (A) (A) (A) (A) (A) (A) (A) (A)
                 (A) (A) (A) (A)
       Virtual   (A) (A) (A) (A) (A) (A) (A) (A) (A) (A) (A) (A)
                 (A) (A) (A) (A) (A) (A) (A) (A) (A) (A) (A) (A)
                 (A) (A) (A) (A) (A) (A) (A) (A) (A) (A) (A) (A)
                 (A) (A) (A) (A) (A) (A) (A) (A) (A) (A) (A) (A)
                 (A) (A) (A) (A) (A) (A) (A) (A) (A) (A) (A) (A)
                 (A) (A) (A) (A) (A) (A) (A) (A) (A) (A) (A) (A)
                 (A) (A) (A) (A) (A) (A) (A) (A) (A) (A) (A) (A)
                 (A) (A) (A) (A) (A) (A) (A) (A) (A) (A) (A) (A)
                 (A) (A) (A) (A) (A) (A) (A) (A) (A) (A) (A) (A)
                 (A) (A) (A) (A) (A) (A) (A) (A) (A) (A) (A) (A)
                 (A) (A) (A) (A) (A) (A) (A) (A) (A) (A) (A) (A)
                 (A) (A) (A) (A) (A) (A) (A) (A) (A) (A) (A) (A)
                 (A) (A) (A) (A) (A) (A) (A) (A) (A) (A) (A) (A)
                 (A) (A) (A) (A) (A) (A) (A) (A) (A) (A) (A) (A)
                 (A) (A) (A) (A) (A) (A) (A) (A) (A) (A) (A) (A)
                 (A) (A) (A) (A) (A) (A) (A) (A) (A) (A) (A) (A)
                 (A) (A) (A) (A) (A) (A) (A) (A) (A) (A) (A) (A)
                 (A) (A) (A) (A) (A) (A) (A) (A) (A) (A) (A) (A)
                 (A) (A) (A) (A) (A) (A) (A) (A) (A) (A) (A) (A)
                 (A) (A) (A) (A) (A) (A) (A) (A) (A) (A) (A) (A)
                 (A) (A) (A) (A) (A) (A) (A) (A) (A) (A) (A) (A)
                 (A) (A) (A) (A) (A) (A) (A) (A) (A) (A) (A) (A)
                 (A) (A) (A) (A) (A) (A) (A) (A) (A) (A) (A) (A)
                 (A) (A) (A) (A) (A) (A) (A) (A) (A) (A) (A) (A)
                 (A) (A) (A) (A) (A) (A) (A) (A) (A) (A) (A) (A)
                 (A) (A) (A) (A) (A) (A) (A) (A) (A) (A) (A) (A)
 The electronic state is 1-A.
 Alpha  occ. eigenvalues --  -24.74054 -24.72978 -19.17843 -19.11952 -19.07048
 Alpha  occ. eigenvalues --  -10.29705 -10.29484 -10.28090 -10.25359 -10.23121
 Alpha  occ. eigenvalues --  -10.21674 -10.21648 -10.20845 -10.20404 -10.19884
 Alpha  occ. eigenvalues --  -10.19382 -10.19318 -10.18327  -1.24540  -1.20841
 Alpha  occ. eigenvalues --   -1.08723  -1.02233  -0.89900  -0.88111  -0.86995
 Alpha  occ. eigenvalues --   -0.79955  -0.78832  -0.77965  -0.72706  -0.65969
 Alpha  occ. eigenvalues --   -0.63791  -0.62051  -0.60765  -0.57300  -0.55832
 Alpha  occ. eigenvalues --   -0.53054  -0.51925  -0.50620  -0.50166  -0.48916
 Alpha  occ. eigenvalues --   -0.48170  -0.45944  -0.45755  -0.45053  -0.44860
 Alpha  occ. eigenvalues --   -0.44203  -0.43131  -0.42322  -0.40984  -0.40394
 Alpha  occ. eigenvalues --   -0.39935  -0.38574  -0.37898  -0.37581  -0.36362
 Alpha  occ. eigenvalues --   -0.35135  -0.31444  -0.28608  -0.28138  -0.27210
 Alpha  occ. eigenvalues --   -0.25017  -0.22904  -0.22694  -0.21004
 Alpha virt. eigenvalues --   -0.05016  -0.02545  -0.01573  -0.00166   0.00280
 Alpha virt. eigenvalues --    0.00783   0.01537   0.02341   0.02786   0.03634
 Alpha virt. eigenvalues --    0.03850   0.04321   0.05138   0.05446   0.05609
 Alpha virt. eigenvalues --    0.06586   0.06953   0.07056   0.07874   0.08929
 Alpha virt. eigenvalues --    0.09436   0.09908   0.10134   0.10440   0.11270
 Alpha virt. eigenvalues --    0.11683   0.12102   0.12705   0.13398   0.13713
 Alpha virt. eigenvalues --    0.13908   0.14008   0.14292   0.14909   0.15623
 Alpha virt. eigenvalues --    0.16174   0.16325   0.17167   0.17639   0.17883
 Alpha virt. eigenvalues --    0.18497   0.18939   0.19154   0.19760   0.20197
 Alpha virt. eigenvalues --    0.20509   0.21210   0.21335   0.21898   0.22292
 Alpha virt. eigenvalues --    0.22822   0.23138   0.23552   0.23896   0.24122
 Alpha virt. eigenvalues --    0.24295   0.24444   0.25475   0.25776   0.26188
 Alpha virt. eigenvalues --    0.26401   0.27262   0.27464   0.27624   0.28323
 Alpha virt. eigenvalues --    0.28731   0.29343   0.29527   0.30208   0.30510
 Alpha virt. eigenvalues --    0.30794   0.31179   0.31459   0.31814   0.32297
 Alpha virt. eigenvalues --    0.32606   0.33898   0.33966   0.34284   0.35028
 Alpha virt. eigenvalues --    0.36049   0.36357   0.36479   0.36855   0.37669
 Alpha virt. eigenvalues --    0.38146   0.38342   0.38825   0.40161   0.40781
 Alpha virt. eigenvalues --    0.41947   0.42816   0.43214   0.44174   0.44877
 Alpha virt. eigenvalues --    0.46573   0.47155   0.48102   0.48871   0.57048
 Alpha virt. eigenvalues --    0.59799   0.61350   0.62975   0.66811   0.68233
 Alpha virt. eigenvalues --    0.70038   0.70583   0.71137   0.71420   0.71710
 Alpha virt. eigenvalues --    0.73163   0.74024   0.74870   0.75526   0.75721
 Alpha virt. eigenvalues --    0.76425   0.77564   0.78888   0.80032   0.80715
 Alpha virt. eigenvalues --    0.81215   0.83533   0.84517   0.84930   0.86376
 Alpha virt. eigenvalues --    0.86553   0.87496   0.87842   0.89439   0.90828
 Alpha virt. eigenvalues --    0.91565   0.93474   0.93644   0.95119   0.97661
 Alpha virt. eigenvalues --    0.98270   1.00086   1.04183   1.05812   1.07166
 Alpha virt. eigenvalues --    1.07863   1.09456   1.10329   1.11495   1.12705
 Alpha virt. eigenvalues --    1.13938   1.16017   1.17612   1.19135   1.19368
 Alpha virt. eigenvalues --    1.20143   1.21952   1.22964   1.23781   1.24728
 Alpha virt. eigenvalues --    1.25203   1.26866   1.28565   1.29001   1.29779
 Alpha virt. eigenvalues --    1.30044   1.31502   1.32094   1.33025   1.33515
 Alpha virt. eigenvalues --    1.34854   1.36364   1.37584   1.38126   1.39353
 Alpha virt. eigenvalues --    1.39681   1.40126   1.40881   1.41348   1.41870
 Alpha virt. eigenvalues --    1.44360   1.45843   1.46251   1.49114   1.50916
 Alpha virt. eigenvalues --    1.54417   1.60985   1.62781   1.63256   1.64792
 Alpha virt. eigenvalues --    1.66026   1.67410   1.68797   1.69827   1.71404
 Alpha virt. eigenvalues --    1.72033   1.72603   1.73529   1.75259   1.75324
 Alpha virt. eigenvalues --    1.76334   1.78987   1.79438   1.80272   1.83173
 Alpha virt. eigenvalues --    1.83321   1.84156   1.84938   1.87066   1.87867
 Alpha virt. eigenvalues --    1.88187   1.89179   1.89977   1.91299   1.91598
 Alpha virt. eigenvalues --    1.92987   1.93694   1.94365   1.95578   1.96601
 Alpha virt. eigenvalues --    1.98186   1.98820   2.01067   2.02192   2.04823
 Alpha virt. eigenvalues --    2.06642   2.07690   2.09434   2.09649   2.10577
 Alpha virt. eigenvalues --    2.16072   2.17670   2.17763   2.19160   2.21840
 Alpha virt. eigenvalues --    2.23387   2.23633   2.25819   2.25873   2.27362
 Alpha virt. eigenvalues --    2.30449   2.31603   2.32685   2.34688   2.35413
 Alpha virt. eigenvalues --    2.36683   2.37049   2.37568   2.39102   2.41012
 Alpha virt. eigenvalues --    2.42241   2.44502   2.46202   2.49676   2.50118
 Alpha virt. eigenvalues --    2.53385   2.53971   2.55043   2.56940   2.57113
 Alpha virt. eigenvalues --    2.58450   2.59413   2.61733   2.63145   2.64755
 Alpha virt. eigenvalues --    2.65364   2.68368   2.69228   2.70214   2.71595
 Alpha virt. eigenvalues --    2.73481   2.76339   2.77493   2.78878   2.82339
 Alpha virt. eigenvalues --    2.83937   2.85973   2.92547   2.96227   2.99679
 Alpha virt. eigenvalues --    3.01876   3.05298   3.08869   3.12035   3.15762
 Alpha virt. eigenvalues --    3.20243   3.21171   3.23229   3.26779   3.31863
 Alpha virt. eigenvalues --    3.33733   3.35080   3.36182   3.40526   3.43513
 Alpha virt. eigenvalues --    3.47964   3.51344   3.78433   3.84891   4.18423
 Alpha virt. eigenvalues --    4.26021   4.28306   4.31217   4.34373   4.37455
 Alpha virt. eigenvalues --    4.38375   4.45262   4.48953   4.50409   4.51215
 Alpha virt. eigenvalues --    4.54364   4.58560   4.65121   4.84441   4.93937
 Alpha virt. eigenvalues --    6.02999   6.23206
          Condensed to atoms (all electrons):
              1          2          3          4          5          6
     1  F    9.398827   0.375081  -0.199060  -0.011194  -0.000543  -0.017480
     2  C    0.375081  19.370446  -3.989861   0.852927  -0.030479   1.192867
     3  C   -0.199060  -3.989861  10.131246  -0.334094  -0.105429  -0.743005
     4  C   -0.011194   0.852927  -0.334094   6.328430   0.306473  -0.285889
     5  F   -0.000543  -0.030479  -0.105429   0.306473   9.410463  -0.183202
     6  C   -0.017480   1.192867  -0.743005  -0.285889  -0.183202  10.271287
     7  C    0.003006  -7.100323   0.482859   0.854428   0.014425  -5.843191
     8  C   -0.157571  -4.349415  -0.129134  -1.208208  -0.055160   0.526152
     9  C    0.022025   0.171934   0.203080  -0.507744   0.008164   1.083963
    10  C    0.020555  -0.400391   0.238428  -0.121599   0.002990   0.403458
    11  C   -0.035622  -1.040827  -0.101321   0.061296  -0.000251  -0.133297
    12  C   -0.001298  -0.013965   0.034772  -0.006030  -0.000001   0.017207
    13  O   -0.000191   0.011914   0.003913  -0.000580   0.000000   0.002020
    14  O    0.000065   0.006271   0.000578  -0.000060   0.000000   0.000350
    15  C   -0.025170   1.204239   0.027259   0.222079  -0.001342  -0.713391
    16  C    0.012805  -0.400947  -0.060505  -0.008202  -0.000090  -0.075581
    17  C    0.001400   0.502335   0.006215   0.012323   0.000147  -0.007570
    18  O   -0.000015   0.002462   0.000538   0.000103   0.000000  -0.000941
    19  H   -0.007835   0.008163   0.228032   0.009934  -0.006977   0.011792
    20  H    0.000053  -0.005612   0.031348   0.004143  -0.006587   0.270112
    21  H   -0.000252   0.083866  -0.029768  -0.005081  -0.000681  -0.021057
    22  H   -0.000352   0.086144   0.026223   0.001032   0.000000  -0.000819
    23  H   -0.000001  -0.084705   0.003519  -0.001382   0.000000   0.050227
    24  H    0.000000   0.000975   0.000040  -0.000096   0.000000   0.000689
    25  H    0.000001  -0.000670   0.000134   0.000000   0.000000  -0.000048
              7          8          9         10         11         12
     1  F    0.003006  -0.157571   0.022025   0.020555  -0.035622  -0.001298
     2  C   -7.100323  -4.349415   0.171934  -0.400391  -1.040827  -0.013965
     3  C    0.482859  -0.129134   0.203080   0.238428  -0.101321   0.034772
     4  C    0.854428  -1.208208  -0.507744  -0.121599   0.061296  -0.006030
     5  F    0.014425  -0.055160   0.008164   0.002990  -0.000251  -0.000001
     6  C   -5.843191   0.526152   1.083963   0.403458  -0.133297   0.017207
     7  C   20.049935  -1.539832  -2.255049   0.028048   0.662188  -0.021261
     8  C   -1.539832  17.799362  -2.262721  -6.578313   3.889158  -0.195473
     9  C   -2.255049  -2.262721  17.343062  -0.247168  -2.581698  -0.143631
    10  C    0.028048  -6.578313  -0.247168  42.067992 -15.439596   1.918968
    11  C    0.662188   3.889158  -2.581698 -15.439596  26.143561  -2.679786
    12  C   -0.021261  -0.195473  -0.143631   1.918968  -2.679786   6.737224
    13  O   -0.006736  -0.010894   0.099902  -0.180299  -0.246235   0.438241
    14  O   -0.002173  -0.001733   0.028685   0.155648  -0.472736   0.482123
    15  C    0.989287  -0.626783  -5.345270 -10.366071  -0.749136   0.140267
    16  C    0.090216   1.288320   1.154304  -1.281591  -0.487468  -0.412411
    17  C   -0.136377  -1.277860  -1.264643  -3.800148  -1.396499  -0.971727
    18  O   -0.000345  -0.008227  -0.122488   0.115853  -0.345332  -0.012142
    19  H    0.007585   0.054321  -0.002072   0.006002   0.000541  -0.000051
    20  H   -0.012998   0.039034  -0.003314   0.000415   0.000267  -0.000007
    21  H    0.211571   0.131512  -0.112184  -0.091089  -0.011016  -0.000559
    22  H   -0.062860  -0.038064   0.147677  -0.009389   0.007612  -0.005710
    23  H    0.089211  -0.093565   0.195449   0.137069   0.013061   0.001866
    24  H   -0.004468  -0.005378   0.014816   0.012049   0.044455   0.006468
    25  H    0.000189   0.004743   0.012947  -0.083729  -0.117827   0.009161
             13         14         15         16         17         18
     1  F   -0.000191   0.000065  -0.025170   0.012805   0.001400  -0.000015
     2  C    0.011914   0.006271   1.204239  -0.400947   0.502335   0.002462
     3  C    0.003913   0.000578   0.027259  -0.060505   0.006215   0.000538
     4  C   -0.000580  -0.000060   0.222079  -0.008202   0.012323   0.000103
     5  F    0.000000   0.000000  -0.001342  -0.000090   0.000147   0.000000
     6  C    0.002020   0.000350  -0.713391  -0.075581  -0.007570  -0.000941
     7  C   -0.006736  -0.002173   0.989287   0.090216  -0.136377  -0.000345
     8  C   -0.010894  -0.001733  -0.626783   1.288320  -1.277860  -0.008227
     9  C    0.099902   0.028685  -5.345270   1.154304  -1.264643  -0.122488
    10  C   -0.180299   0.155648 -10.366071  -1.281591  -3.800148   0.115853
    11  C   -0.246235  -0.472736  -0.749136  -0.487468  -1.396499  -0.345332
    12  C    0.438241   0.482123   0.140267  -0.412411  -0.971727  -0.012142
    13  O    8.839799  -0.203736   0.039410  -0.013000   0.114004  -0.001656
    14  O   -0.203736   8.543679   0.004697   0.042160  -0.106337   0.013151
    15  C    0.039410   0.004697  28.118701  -8.049183   1.264860   0.143210
    16  C   -0.013000   0.042160  -8.049183  16.689737  -2.805115  -0.548401
    17  C    0.114004  -0.106337   1.264860  -2.805115  16.345900   0.745078
    18  O   -0.001656   0.013151   0.143210  -0.548401   0.745078   8.384474
    19  H    0.000000   0.000000  -0.003427  -0.000342   0.000083   0.000000
    20  H    0.000000   0.000000  -0.004886   0.000565  -0.000084   0.000000
    21  H    0.000000   0.000000   0.105696   0.044765   0.006860   0.000000
    22  H    0.001615   0.001837   0.116790  -0.035178   0.058958  -0.000811
    23  H    0.000005  -0.000001   0.074138   0.010414  -0.095536  -0.000781
    24  H    0.000016   0.000146  -0.015826   0.259743   0.001503  -0.008336
    25  H    0.000169   0.008473  -0.035537   0.175221   0.034039   0.219260
             19         20         21         22         23         24
     1  F   -0.007835   0.000053  -0.000252  -0.000352  -0.000001   0.000000
     2  C    0.008163  -0.005612   0.083866   0.086144  -0.084705   0.000975
     3  C    0.228032   0.031348  -0.029768   0.026223   0.003519   0.000040
     4  C    0.009934   0.004143  -0.005081   0.001032  -0.001382  -0.000096
     5  F   -0.006977  -0.006587  -0.000681   0.000000   0.000000   0.000000
     6  C    0.011792   0.270112  -0.021057  -0.000819   0.050227   0.000689
     7  C    0.007585  -0.012998   0.211571  -0.062860   0.089211  -0.004468
     8  C    0.054321   0.039034   0.131512  -0.038064  -0.093565  -0.005378
     9  C   -0.002072  -0.003314  -0.112184   0.147677   0.195449   0.014816
    10  C    0.006002   0.000415  -0.091089  -0.009389   0.137069   0.012049
    11  C    0.000541   0.000267  -0.011016   0.007612   0.013061   0.044455
    12  C   -0.000051  -0.000007  -0.000559  -0.005710   0.001866   0.006468
    13  O    0.000000   0.000000   0.000000   0.001615   0.000005   0.000016
    14  O    0.000000   0.000000   0.000000   0.001837  -0.000001   0.000146
    15  C   -0.003427  -0.004886   0.105696   0.116790   0.074138  -0.015826
    16  C   -0.000342   0.000565   0.044765  -0.035178   0.010414   0.259743
    17  C    0.000083  -0.000084   0.006860   0.058958  -0.095536   0.001503
    18  O    0.000000   0.000000   0.000000  -0.000811  -0.000781  -0.008336
    19  H    0.521739  -0.000129   0.000009   0.000000   0.000000   0.000000
    20  H   -0.000129   0.525255  -0.006885   0.000000   0.000001   0.000000
    21  H    0.000009  -0.006885   0.542082   0.000014   0.000355   0.000001
    22  H    0.000000   0.000000   0.000014   0.555248  -0.000176   0.000021
    23  H    0.000000   0.000001   0.000355  -0.000176   0.566302  -0.007557
    24  H    0.000000   0.000000   0.000001   0.000021  -0.007557   0.551466
    25  H    0.000000   0.000000   0.000000   0.000000   0.000005   0.000171
             25
     1  F    0.000001
     2  C   -0.000670
     3  C    0.000134
     4  C    0.000000
     5  F    0.000000
     6  C   -0.000048
     7  C    0.000189
     8  C    0.004743
     9  C    0.012947
    10  C   -0.083729
    11  C   -0.117827
    12  C    0.009161
    13  O    0.000169
    14  O    0.008473
    15  C   -0.035537
    16  C    0.175221
    17  C    0.034039
    18  O    0.219260
    19  H    0.000000
    20  H    0.000000
    21  H    0.000000
    22  H    0.000000
    23  H    0.000005
    24  H    0.000171
    25  H    0.389657
 Mulliken atomic charges:
              1
     1  F   -0.377235
     2  C   -0.452428
     3  C    0.273991
     4  C   -0.163006
     5  F   -0.351919
     6  C    0.195347
     7  C   -0.497335
     8  C    0.805726
     9  C    0.361974
    10  C   -0.508090
    11  C    1.016509
    12  C    0.677754
    13  O   -0.887680
    14  O   -0.501088
    15  C   -0.514613
    16  C    0.409764
    17  C   -1.231808
    18  O   -0.574655
    19  H    0.172630
    20  H    0.169307
    21  H    0.151842
    22  H    0.150186
    23  H    0.142080
    24  H    0.149102
    25  H    0.383644
 Sum of Mulliken atomic charges =  -1.00000
 Mulliken charges with hydrogens summed into heavy atoms:
              1
     1  F   -0.377235
     2  C   -0.452428
     3  C    0.446621
     4  C   -0.163006
     5  F   -0.351919
     6  C    0.364655
     7  C   -0.345493
     8  C    0.805726
     9  C    0.361974
    10  C   -0.357904
    11  C    1.016509
    12  C    0.677754
    13  O   -0.887680
    14  O   -0.501088
    15  C   -0.372534
    16  C    0.558866
    17  C   -1.231808
    18  O   -0.191011
 Sum of Mulliken charges with hydrogens summed into heavy atoms =  -1.00000
 Electronic spatial extent (au):  <R**2>=           5561.4156
 Charge=             -1.0000 electrons
 Dipole moment (field-independent basis, Debye):
    X=            -16.2773    Y=             12.1873    Z=              4.0002  Tot=             20.7239
 Quadrupole moment (field-independent basis, Debye-Ang):
   XX=           -170.8802   YY=           -129.0939   ZZ=           -108.9028
   XY=             26.2326   XZ=             19.7022   YZ=            -10.6278
 Traceless Quadrupole moment (field-independent basis, Debye-Ang):
   XX=            -34.5879   YY=              7.1984   ZZ=             27.3895
   XY=             26.2326   XZ=             19.7022   YZ=            -10.6278
 Octapole moment (field-independent basis, Debye-Ang**2):
  XXX=           -213.6705  YYY=             76.1020  ZZZ=             15.3827  XYY=           -120.6267
  XXY=            106.2828  XXZ=             65.9791  XZZ=            -18.3646  YZZ=             17.1294
  YYZ=             30.5738  XYZ=            -16.5918
 Hexadecapole moment (field-independent basis, Debye-Ang**3):
 XXXX=          -6924.2337 YYYY=          -1404.2430 ZZZZ=           -375.5004 XXXY=            327.6478
 XXXZ=            249.2751 YYYX=            238.4930 YYYZ=            -95.4525 ZZZX=             47.6797
 ZZZY=            -39.2764 XXYY=          -1431.2395 XXZZ=           -957.0474 YYZZ=           -302.8466
 XXYZ=           -124.2080 YYXZ=            107.2205 ZZXY=             46.5181
 N-N= 1.206820150805D+03 E-N=-4.595789227311D+03  KE= 9.175008546976D+02
 No NMR shielding tensors so no spin-rotation constants.
 Leave Link  601 at Mon Oct 29 15:19:20 2012, MaxMem=  268435456 cpu:       0.8
 (Enter /home/est863/Gaussian/g09/l701.exe)
 Compute integral first derivatives.
 ... and contract with generalized density number  0.
 D1PCM: PCM CHGder 1st derivatives, ID1Alg=3 FixD1E=F DoIter=F DoCFld=F I1PDM=0.
 GePol: Maximum number of non-zero 1st derivatives   =     227
 Leave Link  701 at Mon Oct 29 15:21:22 2012, MaxMem=  268435456 cpu:      14.3
 (Enter /home/est863/Gaussian/g09/l702.exe)
 L702 exits ... SP integral derivatives will be done elsewhere.
 Leave Link  702 at Mon Oct 29 15:21:25 2012, MaxMem=  268435456 cpu:       0.0
 (Enter /home/est863/Gaussian/g09/l703.exe)
 Compute integral first derivatives, UseDBF=F ICtDFT=           0.
 Integral derivatives from FoFDir, PRISM(SPDF).
 Calling FoFJK, ICntrl=      2127 FMM=F ISym2X=0 I1Cent= 0 IOpClX= 0 NMat=1 NMatS=1 NMatT=0.
 FoFCou: FMM=F IPFlag=           0 FMFlag=      100000 FMFlg1=         800
         NFxFlg=           0 DoJE=F BraDBF=F KetDBF=F FulRan=T
         Omega=  0.000000  0.000000  1.000000  0.000000  0.000000 ICntrl=    2127 IOpCl=  0
         NMat0=    1 NMatS0=    1 NMatT0=    0 NMatD0=    1 NMtDS0=    0 NMtDT0=    0
         I1Cent=           0 NGrid=           0.
 Symmetry not used in FoFCou.
 Leave Link  703 at Mon Oct 29 15:28:52 2012, MaxMem=  268435456 cpu:     144.4
 (Enter /home/est863/Gaussian/g09/l716.exe)
 Dipole        =-6.40397006D+00 4.79485437D+00 1.57378908D+00
 ***** Axes restored to original set *****
 -------------------------------------------------------------------
 Center     Atomic                   Forces (Hartrees/Bohr)
 Number     Number              X              Y              Z
 -------------------------------------------------------------------
      1        9           0.043035394    0.016514002    0.007514804
      2        6          -0.021104024   -0.002130055    0.035825883
      3        6           0.014271422   -0.001563625   -0.063143339
      4        6          -0.026668238   -0.015470501   -0.012087058
      5        9          -0.006351946   -0.004363850   -0.005835407
      6        6           0.044270081    0.019622308   -0.041210438
      7        6          -0.058294050   -0.017950390    0.086357343
      8        6           0.030262339    0.005472352   -0.040771386
      9        6          -0.031112736   -0.046235835    0.038126236
     10        6           0.049085595    0.022755559   -0.114743434
     11        6          -0.022630405   -0.018486589    0.064160474
     12        6           0.157150697   -0.040926448   -0.201301982
     13        8          -0.007580729    0.077445597    0.022590317
     14        8          -0.149727682   -0.007280730    0.186025754
     15        6           0.042734903    0.030170864   -0.080976852
     16        6          -0.011890181    0.044444997    0.075237622
     17        6          -0.050099454   -0.060181208    0.061686251
     18        8          -0.046457706   -0.007324670   -0.017797785
     19        1           0.001296620    0.002393910    0.000881093
     20        1          -0.002326296   -0.002247766   -0.001048913
     21        1          -0.005591324   -0.002945371    0.001824069
     22        1           0.000347013    0.002376191   -0.000136758
     23        1           0.000342968   -0.001180951   -0.000394181
     24        1          -0.003642265   -0.002959669    0.000851815
     25        1           0.060680006    0.010051880   -0.001634127
 -------------------------------------------------------------------
 Cartesian Forces:  Max     0.201301982 RMS     0.053752831
 Leave Link  716 at Mon Oct 29 15:28:56 2012, MaxMem=  268435456 cpu:       0.1
 (Enter /home/est863/Gaussian/g09/l103.exe)

 GradGradGradGradGradGradGradGradGradGradGradGradGradGradGradGradGradGrad
 Berny optimization.
 Internal  Forces:  Max     0.237411226 RMS     0.030544934
 Search for a local minimum.
 Step number   1 out of a maximum of  134
 All quantities printed in internal units (Hartrees-Bohrs-Radians)
 RMS Force = .30545D-01 SwitMx=.10000D-02 MixMth= 1
 Mixed Optimization -- RFO/linear search
 Second derivative matrix not updated -- first step.
     Eigenvalues ---    0.00230   0.00230   0.01239   0.01485   0.01530
     Eigenvalues ---    0.01738   0.01763   0.01764   0.01993   0.02096
     Eigenvalues ---    0.02150   0.02222   0.02310   0.02313   0.02365
     Eigenvalues ---    0.02501   0.02608   0.02731   0.02840   0.02941
     Eigenvalues ---    0.03034   0.03147   0.16000   0.16000   0.16000
     Eigenvalues ---    0.16000   0.16000   0.16000   0.16000   0.22340
     Eigenvalues ---    0.22363   0.23421   0.23478   0.24552   0.24595
     Eigenvalues ---    0.24950   0.24964   0.24971   0.24996   0.24999
     Eigenvalues ---    0.25000   0.25000   0.25000   0.25086   0.33746
     Eigenvalues ---    0.33830   0.34806   0.34808   0.34808   0.34812
     Eigenvalues ---    0.34815   0.34819   0.39102   0.39864   0.40385
     Eigenvalues ---    0.40545   0.41403   0.41704   0.41783   0.43365
     Eigenvalues ---    0.48926   0.51666   0.53746   0.53832   0.56419
     Eigenvalues ---    0.60907   0.61110   0.65104   1.571621000.00000
     Eigenvalues --- 1000.000001000.000001000.000001000.000001000.00000
     Eigenvalues --- 1000.000001000.000001000.000001000.000001000.00000
     Eigenvalues --- 1000.000001000.000001000.000001000.000001000.00000
     Eigenvalues --- 1000.000001000.000001000.000001000.000001000.00000
     Eigenvalues --- 1000.000001000.000001000.000001000.000001000.00000
     Eigenvalues --- 1000.000001000.000001000.000001000.000001000.00000
     Eigenvalues --- 1000.000001000.000001000.000001000.000001000.00000
     Eigenvalues --- 1000.000001000.000001000.000001000.000001000.00000
     Eigenvalues --- 1000.000001000.000001000.000001000.000001000.00000
     Eigenvalues --- 1000.000001000.000001000.000001000.000001000.00000
     Eigenvalues --- 1000.000001000.000001000.000001000.00000
 RFO step:  Lambda=-1.32735527D-01 EMin= 2.30000000D-03
 Linear search not attempted -- first point.
 Maximum step size (   0.300) exceeded in Quadratic search.
    -- Step size scaled by   0.665
 Iteration  1 RMS(Cart)=  0.04616937 RMS(Int)=  0.00056657
 Iteration  2 RMS(Cart)=  0.00076107 RMS(Int)=  0.00006347
 Iteration  3 RMS(Cart)=  0.00000067 RMS(Int)=  0.00006347
 Variable       Old X    -DE/DX   Delta X   Delta X   Delta X     New X
                                 (Linear)    (Quad)   (Total)
    R1        2.72792  -0.04597   0.00000  -0.05840  -0.05840   2.66952
    R2        2.54753   0.04066   0.00000   0.03775   0.03787   2.58540
    R3        2.67374  -0.00979   0.00000  -0.01378  -0.01375   2.65999
    R4        2.65744  -0.02073   0.00000  -0.02364  -0.02355   2.63389
    R5        2.05970  -0.00219   0.00000  -0.00304  -0.00304   2.05667
    R6        2.56185   0.00231   0.00000   0.00229   0.00229   2.56414
    R7        2.56207   0.03878   0.00000   0.04032   0.04030   2.60237
    R8        2.48992   0.08021   0.00000   0.07189   0.07177   2.56169
    R9        2.05977  -0.00293   0.00000  -0.00405  -0.00405   2.05572
   R10        2.79439  -0.04244   0.00000  -0.05888  -0.05897   2.73542
   R11        2.05988  -0.00257   0.00000  -0.00356  -0.00356   2.05632
   R12        2.69200   0.03382   0.00000   0.04087   0.04087   2.73287
   R13        2.79612  -0.03340   0.00000  -0.04908  -0.04914   2.74698
   R14        2.59446   0.02890   0.00000   0.03001   0.02997   2.62444
   R15        2.46648   0.09893   0.00000   0.08187   0.08185   2.54833
   R16        2.05990  -0.00183   0.00000  -0.00253  -0.00253   2.05738
   R17        2.98991  -0.02446   0.00000  -0.04243  -0.04243   2.94748
   R18        2.67850   0.00168   0.00000   0.00246   0.00250   2.68099
   R19        2.70820  -0.07597   0.00000  -0.09391  -0.09391   2.61429
   R20        2.11832   0.23741   0.00000   0.09267   0.09267   2.21099
   R21        2.47752   0.10399   0.00000   0.09070   0.09072   2.56824
   R22        2.05981  -0.00084   0.00000  -0.00117  -0.00117   2.05864
   R23        2.51281   0.05469   0.00000   0.05167   0.05173   2.56454
   R24        2.05987  -0.00180   0.00000  -0.00249  -0.00249   2.05738
   R25        2.71034  -0.02329   0.00000  -0.02888  -0.02888   2.68146
   R26        1.98438  -0.06112   0.00000  -0.07652  -0.07652   1.90786
    A1        2.01947  -0.00352   0.00000  -0.00310  -0.00318   2.01629
    A2        2.17015  -0.02484   0.00000  -0.04025  -0.04033   2.12982
    A3        2.09189   0.02845   0.00000   0.04366   0.04381   2.13570
    A4        2.13421  -0.01787   0.00000  -0.03603  -0.03582   2.09840
    A5        2.07453   0.01015   0.00000   0.02077   0.02066   2.09519
    A6        2.07444   0.00772   0.00000   0.01526   0.01515   2.08960
    A7        2.12242  -0.01111   0.00000  -0.02144  -0.02147   2.10095
    A8        2.10411  -0.00180   0.00000   0.00114   0.00121   2.10532
    A9        2.05663   0.01290   0.00000   0.02030   0.02027   2.07690
   A10        2.06695  -0.00133   0.00000   0.00508   0.00493   2.07188
   A11        2.10808  -0.00092   0.00000  -0.00613  -0.00606   2.10202
   A12        2.10815   0.00224   0.00000   0.00105   0.00112   2.10928
   A13        2.17544  -0.00925   0.00000  -0.01366  -0.01387   2.16157
   A14        2.05382   0.01085   0.00000   0.02098   0.02109   2.07491
   A15        2.05393  -0.00160   0.00000  -0.00733  -0.00722   2.04671
   A16        1.99342   0.00180   0.00000  -0.00015  -0.00022   1.99320
   A17        2.16494   0.00050   0.00000   0.00251   0.00254   2.16748
   A18        2.12470  -0.00229   0.00000  -0.00234  -0.00231   2.12240
   A19        2.14454  -0.01070   0.00000  -0.01695  -0.01691   2.12763
   A20        2.14670  -0.00186   0.00000  -0.00152  -0.00147   2.14523
   A21        1.99101   0.01260   0.00000   0.01867   0.01857   2.00958
[...]
 91487,-0.27351759,0.00316134,0.13128983,0.64520075,0.00109397,0.000574
 85,0.00007297,-0.00186621,-0.00051802,0.00110274,0.00017751,0.00031508
 ,-0.00009618,0.00013774,-0.00014129,-0.00103105,-0.00076790,-0.0001012
 4,0.00170640,0.00016900,-0.00033191,0.00051175,-0.00048045,-0.00026496
 ,0.00115699,0.00138498,0.00044835,-0.00438677,-0.00547978,-0.00774850,
 0.00626758,0.00903730,-0.01955000,-0.03701310,0.01251333,-0.08599990,-
 0.16363771,-0.01698117,-0.01482213,0.03284140,0.00574623,0.01227735,-0
 .00322102,0.00352762,-0.01695345,-0.02123661,0.01316697,0.03267256,-0.
 01183504,0.03705624,0.05639433,-0.12132388,-0.16228420,0.01642775,0.59
 965544,0.00066862,0.00030401,0.00026327,-0.00091680,-0.00041789,0.0000
 4722,-0.00006587,0.00004362,0.00013665,0.00025777,0.00003951,-0.000533
 01,-0.00043615,-0.00007182,0.00095446,0.00007754,-0.00016266,0.0001332
 0,-0.00020854,0.00006617,0.00066589,0.00014526,0.00048859,-0.00184451,
 -0.00139614,0.00319877,0.00324513,0.00584445,-0.00273438,0.00254362,0.
 00720538,0.00771634,0.01127349,-0.00851586,-0.00769528,0.01311889,0.00
 138914,0.00052441,-0.00499033,0.00846771,-0.02034681,-0.01454685,0.005
 46717,-0.00433965,-0.00398304,-0.00693431,-0.01048584,0.02965390,-0.08
 658424,-0.00956658,0.08714839,0.12524750,0.00031739,0.00027097,0.00006
 337,-0.00059062,-0.00034113,0.00029032,0.00004543,0.00007162,0.0000109
 9,0.00006357,-0.00000980,-0.00033752,-0.00024258,-0.00004739,0.0005573
 2,0.00005424,-0.00000924,0.00013762,-0.00003419,-0.00004044,0.00018839
 ,0.00069088,0.00057400,-0.00085107,0.00128529,0.00752758,0.00334872,-0
 .00533581,-0.00773499,0.00289844,0.01328374,0.01365306,-0.03156463,-0.
 01338054,-0.00594539,0.03152901,0.00402744,-0.00467441,-0.01338954,-0.
 00630236,-0.06398353,-0.03719904,-0.00062512,-0.00909298,-0.00954539,-
 0.02341888,-0.00247403,0.05343400,-0.01829533,-0.10244507,0.00856458,0
 .10236997,0.40180474,-0.00126657,-0.00062840,-0.00031055,0.00198753,0.
 00094479,-0.00068003,-0.00002306,-0.00030506,-0.00003166,-0.00028267,0
 .00011725,0.00133089,0.00096086,0.00014305,-0.00213968,-0.00020090,0.0
 0027527,-0.00067160,0.00028263,-0.00011545,-0.00117305,-0.00153103,-0.
 00036996,0.00382481,0.00140209,-0.00140768,-0.00725080,0.00005822,-0.0
 0463349,0.00324659,0.01576082,-0.01707593,-0.04400081,0.00889146,0.016
 72498,-0.01206803,-0.00241679,-0.00437709,0.00238868,-0.00415906,-0.00
 068143,0.01910537,-0.00070945,0.00041044,0.00849953,0.02003180,0.01990
 301,-0.02978172,0.08098667,-0.01353692,-0.27092085,-0.13032440,-0.0031
 7037,0.38336645,0.00059955,0.00262916,-0.00111435,0.00918690,0.0040928
 3,0.01046658,-0.11536990,-0.06419757,-0.10722255,-0.00614761,-0.009275
 03,-0.02223900,0.00130953,0.00301850,-0.00093983,-0.00293791,-0.004014
 28,0.00176269,-0.00086059,0.00039881,0.00093478,0.00028106,-0.00204302
 ,0.00307333,0.00049225,0.00024851,0.00032819,-0.00006666,0.00003552,-0
 .00002069,0.00001540,-0.00002451,-0.00000175,0.00001149,0.00002721,-0.
 00000704,-0.00000563,-0.00001595,0.00000051,-0.00000848,-0.00001280,0.
 00001225,-0.00004090,-0.00008811,0.00007195,-0.00001367,0.00003961,0.0
 0001721,0.00002483,0.00001568,-0.00002087,-0.00002659,-0.00000941,0.00
 003808,0.11373240,0.00245350,-0.00293471,0.00038069,0.00063334,0.00530
 796,0.00326300,-0.06368956,-0.08089887,-0.09278488,-0.00614794,-0.0012
 2193,-0.01287362,0.00304071,-0.00239595,0.00038629,-0.00405234,0.00240
 527,0.00091369,0.00046773,-0.00097242,0.00052961,-0.00211126,0.0034880
 4,0.00037600,0.00001096,0.00033471,0.00014917,0.00006284,0.00005273,-0
 .00003004,-0.00000739,-0.00000289,0.00002349,0.00000103,0.00001236,0.0
 0000269,-0.00000032,-0.00000554,-0.00000403,-0.00000014,-0.00000385,-0
 .00000149,0.00000069,-0.00000567,0.00016899,-0.00003049,0.00000553,0.0
 0001758,-0.00001235,0.00001175,-0.00001973,0.00000612,-0.00000857,0.00
 000687,0.06971171,0.07672715,-0.00151617,0.00019842,0.00236016,-0.0148
 1187,-0.01143088,-0.01646253,-0.10725686,-0.09257263,-0.24228941,0.003
 32878,0.00218873,0.00596615,-0.00100616,0.00018622,0.00125484,0.001580
 85,0.00043054,0.00093760,0.00079709,0.00065197,-0.00002935,0.00337549,
 0.00077923,-0.00285221,-0.00078607,-0.00069225,-0.00026672,-0.00000611
 ,-0.00014423,0.00005067,0.00006115,0.00003586,-0.00010618,-0.00004315,
 -0.00014779,0.00001910,0.00001847,0.00008035,0.00001253,0.00003313,0.0
 0006235,-0.00004503,0.00007938,0.00023738,-0.00025551,0.00007110,-0.00
 004349,-0.00008852,-0.00007057,-0.00002673,0.00017444,0.00008889,0.000
 05746,-0.00020168,0.11593356,0.10010091,0.25151802,-0.00039569,0.00011
 190,0.00001059,0.00058703,0.00068943,-0.00020293,0.00112486,-0.0023403
 0,-0.00197921,-0.00857379,-0.00640812,0.00513702,0.00007597,0.00231290
 ,-0.00008295,-0.27063224,-0.13257449,0.02854205,-0.00595384,-0.0048006
 8,-0.00048350,0.00261064,-0.00209154,0.00177423,-0.00021118,-0.0004335
 7,-0.00012243,-0.00005636,0.00013431,0.00011781,-0.00002774,-0.0000541
 9,0.00009731,0.00004209,0.00012111,-0.00001260,-0.00001528,-0.00006437
 ,-0.00000721,-0.00003228,-0.00005115,0.00004284,-0.00004498,-0.0000260
 1,-0.00004146,-0.00002676,-0.00005012,0.00007403,0.00006788,0.00001335
 ,-0.00012631,-0.00007707,-0.00003761,0.00015233,-0.00022877,-0.0003580
 6,0.00023409,0.28223720,0.00017108,-0.00044998,0.00010672,0.00066420,-
 0.00033714,-0.00025899,-0.00215161,0.00308617,-0.00274849,-0.01108301,
 -0.00187881,0.00310800,0.00241601,-0.00245825,0.00106301,-0.13212714,-
 0.10628534,0.01222900,-0.00089199,0.00182935,-0.00031958,-0.00215886,0
 .00540226,-0.00035170,-0.00009157,0.00023772,-0.00020181,0.00003427,0.
 00002415,-0.00001262,0.00000058,-0.00000571,0.00000773,0.00001256,0.00
 003863,-0.00000499,-0.00000443,-0.00002150,-0.00000416,-0.00000841,-0.
 00001692,0.00000987,0.00002510,-0.00009148,0.00002827,-0.00001170,-0.0
 0000471,0.00002221,0.00000376,0.00001439,-0.00005699,-0.00002402,-0.00
 001869,0.00006985,-0.00057002,0.00011698,0.00013495,0.14360467,0.10387
 771,0.00007531,0.00017327,0.00029212,-0.00001120,-0.00016232,-0.001693
 72,-0.00159050,-0.00225348,-0.00384831,-0.02184849,-0.01227087,0.00624
 076,0.00019948,0.00123305,0.00291265,0.02967999,0.01266428,-0.06082294
 ,0.02519586,0.01420704,0.00159973,0.00177256,-0.00072285,-0.00420934,0
 .00085512,0.00069384,0.00048325,0.00012627,-0.00012236,-0.00028430,-0.
 00001338,0.00011593,-0.00008966,-0.00005253,-0.00013808,0.00000342,0.0
 0001791,0.00007296,0.00000772,0.00004171,0.00006010,-0.00005059,-0.000
 06235,0.00007929,0.00003523,0.00003426,0.00003593,-0.00007673,-0.00005
 402,-0.00002386,0.00014499,0.00008174,0.00003945,-0.00017321,-0.000972
 10,-0.00059639,0.00032787,-0.03273764,-0.01339832,0.05798324,-0.001571
 26,-0.00101218,-0.00130712,-0.00122399,-0.00372595,0.00277788,-0.00070
 778,0.00037903,0.00035363,0.00097921,-0.00285533,0.00255780,0.00020904
 ,0.00031335,0.00122506,0.00965758,0.00494649,0.01237449,-0.11637312,-0
 .06029146,-0.10675336,-0.00860082,-0.01046242,-0.02169825,0.00000012,0
 .00197315,-0.00101068,0.00012199,-0.00017259,-0.00000050,0.00013375,0.
 00018590,-0.00015897,-0.00009951,-0.00024358,0.00005469,0.00002537,0.0
 0012478,0.00002542,0.00005453,0.00007509,-0.00007880,-0.00023824,-0.00
 061169,0.00023618,0.00015839,0.00026710,0.00025365,-0.00005521,0.00005
 526,0.00004103,0.00005559,0.00006571,-0.00011370,0.00005045,0.00002634
 ,-0.00005935,-0.00045469,0.00214536,-0.00074114,0.11862349,-0.00082620
 ,-0.00076266,-0.00068322,-0.00410280,0.00378538,0.00047353,0.00022874,
 -0.00108390,0.00057128,-0.00247462,0.00534528,0.00042155,0.00003833,0.
 00016184,0.00027195,0.00123972,0.00514638,0.00338996,-0.06000878,-0.08
 282190,-0.08725228,-0.00755595,-0.00195836,-0.01165986,0.00267527,-0.0
 0214503,-0.00125506,-0.00051704,-0.00047656,0.00089862,0.00001010,-0.0
 0018804,-0.00056800,-0.00005532,-0.00012474,0.00003979,0.00000815,0.00
 004975,0.00002500,0.00002214,0.00000842,-0.00003068,0.00070836,0.00042
 028,-0.00020705,-0.00018465,-0.00029473,0.00038212,0.00013068,0.000487
 30,0.00016280,-0.00000006,-0.00002941,-0.00009859,0.00001107,0.0000192
 8,-0.00004595,0.00225002,-0.00308271,0.00039510,0.06811598,0.07765173,
 0.00037407,0.00020098,0.00045347,0.00139553,-0.00002259,0.00066039,0.0
 0037678,0.00043353,-0.00009739,0.00341615,0.00060673,-0.00148833,-0.00
 033587,-0.00046650,-0.00226266,-0.01384974,-0.01128784,-0.01822261,-0.
 10716785,-0.08782311,-0.23817934,0.00318992,0.00208372,0.00575073,0.00
 034131,0.00062346,0.00029222,0.00009187,0.00001377,0.00010996,-0.00005
 634,-0.00001301,0.00010396,-0.00000316,0.00013516,-0.00003597,-0.00001
 017,-0.00006665,-0.00000489,-0.00001759,-0.00005322,0.00005178,0.00047
 235,-0.00014664,-0.00004894,0.00001877,0.00009287,-0.00003829,0.000003
 21,-0.00005569,-0.00015966,-0.00006759,-0.00002577,0.00015297,-0.00007
 968,-0.00004535,-0.00000932,-0.00037840,0.00060492,0.00118762,0.111570
 73,0.09518651,0.25207742,-0.00004844,-0.00003909,0.00014918,0.00061813
 ,0.00049264,-0.00052092,-0.00010633,-0.00025928,0.00016194,0.00017550,
 0.00009344,0.00017202,0.00003178,0.00003319,-0.00014036,-0.00003178,-0
 .00019232,-0.00028133,-0.00038571,-0.00021795,0.00046681,-0.00254414,0
 .00105970,-0.00242299,0.00390782,-0.00918184,-0.00591556,-0.04280709,-
 0.00293994,0.00707759,0.00446172,0.00993510,0.00709059,-0.00367623,0.0
 0164769,-0.00075701,0.00025826,-0.00024143,-0.00030958,0.00066403,-0.0
 0031665,-0.00039650,0.00433813,-0.00329080,0.00277916,-0.00092970,0.00
 015484,0.00004040,0.00479961,-0.00251061,0.00380725,-0.00041932,0.0005
 1628,0.00068788,0.00000163,-0.00000589,-0.00002524,-0.00000581,0.00000
 871,0.00001406,-0.00001541,0.00003965,0.00001884,0.03192542,0.00068710
 ,0.00095835,-0.00109844,-0.00162260,-0.00114320,0.00102761,0.00012755,
 0.00007377,0.00006430,0.00003390,0.00005294,0.00019497,0.00007856,0.00
 002812,-0.00016215,0.00011396,0.00003140,-0.00021114,-0.00032483,-0.00
 002321,0.00003114,0.00177666,0.00091505,-0.00015842,0.00069008,-0.0155
 0728,-0.01635414,-0.00215545,-0.24273797,-0.13786256,0.00043538,0.0062
 7935,0.00031231,0.00045441,-0.00239769,0.00027573,-0.00055675,-0.00030
 792,0.00139469,0.00013580,0.00036903,-0.00050309,-0.00347917,-0.002573
 18,0.00234941,0.00010434,0.00028753,0.00067242,-0.00195827,0.00078192,
 0.00060125,-0.00003634,0.00022624,0.00046896,-0.00000472,-0.00001524,0
 .00002191,0.00002076,-0.00000725,-0.00001354,0.00006465,0.00000914,-0.
 00000473,0.00512198,0.25533352,-0.00075947,0.00071418,-0.00160595,0.00
 051045,0.00061545,-0.00064542,0.00008201,-0.00010691,0.00006198,0.0000
 1401,-0.00001910,-0.00012075,-0.00005872,0.00000490,0.00011562,-0.0000
 6416,-0.00008519,0.00005093,-0.00009017,-0.00008804,0.00022420,-0.0013
 1396,0.00042296,0.00002796,0.00046793,0.00953839,0.00970718,0.00768857
 ,-0.13837927,-0.15395846,0.00046310,-0.02405990,-0.01403043,-0.0015768
 2,-0.00271394,-0.00212803,-0.00062346,0.00048901,0.00251502,-0.0000581
 5,0.00063651,0.00117822,0.00257401,0.00189164,0.00055237,-0.00002451,0
 .00049035,-0.00043378,0.00412231,0.00218806,-0.00238302,0.00029416,-0.
 00093824,-0.00181428,-0.00001607,0.00000454,0.00000922,-0.00001596,-0.
 00000275,0.00002346,-0.00003530,0.00003345,-0.00000688,-0.01106181,0.1
 4981988,0.16204153,-0.00005615,0.00008884,-0.00003757,0.00025109,-0.00
 015512,-0.00074103,-0.00029811,-0.00023079,0.00012892,0.00025411,0.000
 19143,0.00018071,0.00001213,-0.00003618,-0.00007422,-0.00010164,-0.000
 12700,-0.00041221,-0.00005511,0.00066397,0.00076461,-0.00284679,0.0008
 6447,-0.00016202,0.00371745,-0.00003609,-0.00012843,0.00487042,-0.0008
 5448,0.00150531,-0.00067929,0.00031529,-0.00008358,-0.00066265,0.00040
 476,-0.00028241,0.00009189,-0.00019939,-0.00001108,0.00002148,-0.00019
 293,0.00001796,-0.07628172,-0.09142522,0.03677115,-0.00016889,-0.01110
 675,0.00318704,0.00633506,-0.00070215,0.00386251,-0.00049993,-0.000870
 52,0.00048862,0.00001089,0.00000388,-0.00002792,-0.00001674,0.00002907
 ,0.00000021,-0.00070806,0.00025928,0.00064652,0.00009428,0.00004700,0.
 00001338,0.07035622,0.00014740,0.00010077,-0.00004684,-0.00025945,-0.0
 0006010,-0.00039402,-0.00010333,-0.00003496,0.00022381,0.00017831,0.00
 005507,0.00005054,-0.00000373,-0.00001307,0.00007528,0.00017480,0.0002
 6230,-0.00010468,-0.00037906,0.00018493,-0.00026596,0.00029134,0.00041
 067,0.00167817,-0.00940447,-0.01654744,0.00992697,-0.00034984,-0.00209
 273,-0.00477220,0.00045293,0.00025384,-0.00030465,0.00035070,0.0002182
 9,-0.00007951,-0.00016058,-0.00027959,0.00011340,-0.00014827,-0.000191
 74,0.00017695,-0.09201534,-0.27651912,0.07317053,-0.00030554,0.0015790
 6,-0.00130569,-0.00105942,0.00228737,-0.00140872,-0.00023571,-0.000301
 85,0.00050643,0.00001598,-0.00002139,-0.00000259,-0.00001394,0.0000127
 3,-0.00002066,0.00068458,-0.00010256,0.00000498,-0.00049280,-0.0007766
 9,0.00051461,0.10135098,0.29084009,0.00023090,0.00015456,0.00002215,-0
 .00028113,-0.00024921,-0.00038964,-0.00019315,-0.00014144,0.00022514,0
 .00030899,0.00018953,0.00001954,-0.00008412,-0.00004396,0.00018583,-0.
 00002248,0.00006221,-0.00035006,0.00020440,-0.00008654,0.00001277,-0.0
 0132956,-0.00021057,0.00086406,-0.00636096,-0.01621846,0.00877941,0.00
 167621,-0.00390196,-0.00144334,0.00003473,0.00001956,-0.00103734,-0.00
 036706,-0.00033465,-0.00016076,0.00001461,0.00022620,0.00026466,0.0000
 6686,0.00027938,0.00012393,0.03656068,0.07369006,-0.08291192,0.0107117
 2,0.02653262,-0.00457051,0.00384512,-0.00193787,-0.00299617,0.00076540
 ,0.00193955,-0.00072654,-0.00001664,0.00002456,0.00001121,-0.00000378,
 -0.00003171,0.00002224,0.00048475,-0.00044382,-0.00032348,-0.00033287,
 -0.00079068,0.00047219,-0.04389886,-0.07838521,0.08377166,-0.00000622,
 -0.00001536,0.00002744,-0.00018792,-0.00003648,0.00002129,0.00001797,0
 .00003662,0.00010374,0.00004936,0.00000764,-0.00003231,-0.00000914,0.0
 0000074,0.00001515,-0.00001584,0.00000301,0.00001206,-0.00002764,0.000
 07255,-0.00008131,0.00061530,0.00025765,0.00067800,0.00491436,-0.00195
 576,0.00360464,-0.00087791,-0.00016139,0.00025861,0.00326023,-0.002869
 91,0.00267015,0.00011480,0.00006108,-0.00056387,-0.00019757,-0.0003761
 4,-0.00006900,0.00004956,0.00007529,0.00017497,0.00226437,0.01040536,0
 .00699520,-0.03733312,-0.00233485,0.01010914,0.00437760,-0.00992603,-0
 .00679048,-0.00198458,0.00195202,-0.00183387,-0.00001338,-0.00000510,0
 .00002570,-0.00000465,0.00000160,0.00000415,-0.00001107,0.00000443,0.0
 0003777,-0.00049372,0.00018495,-0.00022693,-0.00347374,0.00114947,-0.0
 0193275,0.02941248,-0.00003384,0.00000907,-0.00002434,0.00006519,-0.00
 001416,0.00006547,0.00002691,-0.00002082,-0.00002406,-0.00003004,0.000
 00425,0.00003842,0.00002746,0.00000259,-0.00006084,-0.00000183,0.00000
 272,-0.00001686,0.00004533,-0.00003578,-0.00003923,-0.00019368,0.00023
 497,0.00015666,-0.00175641,0.00189166,0.00083749,-0.00028232,-0.000161
 39,0.00105067,-0.00341499,-0.00334395,0.00276012,0.00094005,0.00094708
 ,-0.00172068,-0.00031519,-0.00131429,-0.00003251,-0.00024604,0.0001074
 5,0.00065405,-0.00037445,0.00619755,0.00390855,-0.00288136,-0.23476212
 ,-0.13788835,0.00159824,-0.01722405,-0.01981642,0.00162486,0.00263562,
 0.00000528,0.00000157,0.00000202,-0.00000545,0.00000567,0.00000062,-0.
 00000616,-0.00002088,-0.00000671,-0.00001106,0.00018644,-0.00006374,-0
 .00005653,0.00136245,0.00049561,0.00014041,0.00359022,0.24478452,-0.00
 017486,-0.00012499,-0.00000641,0.00049803,0.00021113,-0.00020314,-0.00
 011391,0.00001008,-0.00007032,-0.00002846,0.00000272,0.00016575,0.0001
 0137,0.00001651,-0.00022431,0.00000445,0.00001696,-0.00008809,-0.00009
 661,0.00002451,-0.00005268,-0.00024046,-0.00126476,-0.00016710,0.00424
 433,0.00143473,-0.00270879,0.00012619,0.00073844,-0.00051680,0.0021418
 7,0.00124464,0.00052811,0.00008868,0.00053784,0.00008467,-0.00002209,0
 .00013682,0.00002837,-0.00004196,-0.00011955,0.00011972,-0.00072196,-0
 .02364434,-0.01277566,0.01006315,-0.13849768,-0.15864029,0.00109787,0.
 00876269,0.00808099,-0.00183125,-0.00057537,0.00106256,0.00001237,0.00
 000621,-0.00003893,0.00001711,0.00000844,-0.00002125,-0.00000294,-0.00
 001348,0.00004382,-0.00024180,-0.00004324,-0.00003689,-0.00178938,0.00
 062113,0.00054618,-0.01293049,0.15021696,0.16479324,-0.00011146,-0.000
 03907,-0.00005436,0.00016945,0.00004364,-0.00007555,-0.00002456,-0.000
 03970,-0.00000305,-0.00000690,0.00002297,0.00011713,0.00007465,0.00000
 743,-0.00016655,-0.00001519,0.00002808,-0.00007307,0.00002503,0.000016
 58,-0.00008012,-0.00018309,-0.00004048,0.00037348,0.00025511,-0.000349
 70,-0.00063283,-0.00109268,-0.00071467,-0.00035095,-0.00009805,-0.0013
 3789,-0.00034600,0.00298757,0.00701345,-0.00756087,0.00077516,0.000484
 01,0.00517210,-0.01764704,0.00307373,0.00805206,0.00079120,-0.00049156
 ,0.00114391,0.00297376,0.00109112,0.00077341,-0.01067884,-0.01804214,0
 .01592728,-0.04676071,-0.05552900,0.01113253,0.00000372,0.00000200,-0.
 00001821,0.00001223,0.00000578,-0.00001528,-0.00001033,-0.00001652,0.0
 0001257,0.00018737,0.00006106,-0.00030444,-0.00016620,0.00013500,-0.00
 008100,-0.00043953,0.00007664,-0.00015924,0.06897931,-0.00035780,-0.00
 020902,-0.00007443,0.00055070,0.00027675,-0.00024008,-0.00000565,-0.00
 007642,-0.00000021,-0.00008873,0.00001835,0.00033621,0.00026104,0.0000
 4196,-0.00058053,-0.00007063,0.00006695,-0.00013248,0.00009105,0.00001
 915,-0.00029241,-0.00048301,-0.00040939,0.00113333,-0.00002383,-0.0027
 2486,-0.00234166,-0.00008475,-0.00247117,-0.00108845,-0.00040468,-0.00
 540185,-0.00302978,0.02026384,0.00696938,-0.04628463,-0.00585322,0.007
 67964,0.01885179,-0.00535456,0.01797424,0.03858484,-0.00127460,0.00179
 689,0.00401716,0.00479416,0.00588479,-0.01019648,-0.01688834,-0.005921
 30,0.03929438,-0.06026534,-0.22960692,0.00682417,0.00000924,0.00000325
 ,-0.00005431,0.00004005,0.00001779,-0.00004134,-0.00002667,-0.00000749
 ,0.00003553,0.00039894,0.00020699,-0.00091403,0.00035518,0.00024052,-0
 .00048256,-0.00012161,-0.00036873,0.00029361,0.06453924,0.20600048,0.0
 0001280,-0.00001364,0.00002918,-0.00001573,-0.00000144,-0.00002607,-0.
 00001057,0.00000748,0.00000658,0.00001452,-0.00000439,-0.00003445,-0.0
 0002304,-0.00000365,0.00005122,-0.00001167,-0.00000429,0.00001611,-0.0
 0001043,0.00001074,0.00005778,-0.00003596,-0.00014414,-0.00007199,-0.0
 0025168,-0.00120690,-0.00011665,0.00017120,0.00077013,-0.00080255,0.00
 042833,-0.00061977,-0.00139593,0.00212797,-0.01172118,-0.01617296,0.00
 053124,0.00244365,0.00302753,0.00186389,0.01654201,-0.00829243,0.00040
 969,0.00161063,0.00146702,0.00353720,-0.00054787,-0.00664240,0.0165946
 1,0.04209201,-0.01147464,0.00770670,-0.00546227,-0.05103335,-0.0000009
 1,0.00000122,0.00000355,-0.00000502,-0.00000085,0.00000576,0.00000480,
 0.00000632,-0.00000658,-0.00005975,-0.00003246,0.00018401,0.00008175,0
 .00002793,-0.00041122,-0.00027700,-0.00013162,0.00009725,-0.03278294,-
 0.04361763,0.09153522\\0.00000262,-0.00000001,0.00000625,-0.00000702,-
 0.00000451,-0.00000582,-0.00000601,-0.00000852,-0.00000469,0.00000680,
 -0.00000136,-0.00001649,-0.00000471,-0.00000717,0.00000841,0.00000716,
 0.00000351,0.00000254,0.00001104,0.00000137,-0.00000116,-0.00001062,-0
 .00000793,0.00001450,0.00000925,0.00000362,-0.00001247,-0.00000225,-0.
 00001034,0.00001062,0.00001036,0.00000046,-0.00001649,0.00000414,0.000
 01624,0.00001010,-0.00000146,-0.00002883,-0.00002259,-0.00000860,0.000
 01248,0.00002424,-0.00000632,0.00001245,0.00001136,-0.00000286,0.00001
 073,-0.00001099,-0.00000284,0.00000834,0.00002121,0.00001262,0.0000482
 4,-0.00001244,0.00000209,-0.00000319,0.00000048,0.00000101,-0.00000401
 ,-0.00000177,0.00000011,-0.00000105,-0.00000066,-0.00000493,0.00000357
 ,-0.00000385,0.00000331,-0.00000140,-0.00000679,0.00000085,0.00000165,
 -0.00000031,-0.00001371,-0.00004434,0.00000681\\\@


 CHINESE FORTUNE COOKIE OF JAN 1 1967 SAY....
 ALL THINGS ARE DIFFICULT BEFORE THEY ARE EASY.
 WE LEARN SO LITTLE AND FORGET SO MUCH.
 YOU WILL OVERCOME OBSTACLES TO ACHIEVE SUCCESS.
 AH SO.
 Job cpu time:  0 days  1 hours 54 minutes  5.7 seconds.
 File lengths (MBytes):  RWF=    474 Int=      0 D2E=      0 Chk=     17 Scr=      1
 Normal termination of Gaussian 09 at Tue Oct 30 04:51:46 2012.
